n -t 0 -s 0 -S DLABEL -l "switch" -L ""
V -t * -v 1.0a5 -a 0
A -t * -n 1 -p 0 -o 0x7fffffff -c 30 -a 1
A -t * -h 1 -m 1073741823 -s 0
c -t * -i 4 -n Red
c -t * -i 5 -n Red
c -t * -i 6 -n Red
c -t * -i 3 -n Red
n -t * -a 4 -s 4 -S UP -v circle -c black -i black
n -t * -a 0 -s 0 -S UP -v square -c Blue -i Blue
n -t * -a 1 -s 1 -S UP -v circle -c black -i black
n -t * -a 2 -s 2 -S UP -v circle -c black -i black
n -t * -a 3 -s 3 -S UP -v circle -c black -i black
l -t * -s 0 -d 1 -S UP -r 5000000 -D 0.02 -c black -o down
l -t * -s 0 -d 2 -S UP -r 5000000 -D 0.02 -c black -o right
l -t * -s 0 -d 3 -S UP -r 5000000 -D 0.02 -c black -o up
l -t * -s 0 -d 4 -S UP -r 5000000 -D 0.02 -c black -o left
+ -t 0.1 -s 1 -d 0 -p tcp -e 40 -c 3 -i 0 -a 3 -x {1.0 0.4 0 ------- null}
- -t 0.1 -s 1 -d 0 -p tcp -e 40 -c 3 -i 0 -a 3 -x {1.0 0.4 0 ------- null}
h -t 0.1 -s 1 -d 0 -p tcp -e 40 -c 3 -i 0 -a 3 -x {1.0 0.4 -1 ------- null}
r -t 0.120064 -s 1 -d 0 -p tcp -e 40 -c 3 -i 0 -a 3 -x {1.0 0.4 0 ------- null}
+ -t 0.120064 -s 0 -d 1 -p ack -e 40 -c 3 -i 1 -a 3 -x {0.4 1.0 0 ------- null}
- -t 0.120064 -s 0 -d 1 -p ack -e 40 -c 3 -i 1 -a 3 -x {0.4 1.0 0 ------- null}
h -t 0.120064 -s 0 -d 1 -p ack -e 40 -c 3 -i 1 -a 3 -x {0.4 1.0 -1 ------- null}
r -t 0.140128 -s 0 -d 1 -p ack -e 40 -c 3 -i 1 -a 3 -x {0.4 1.0 0 ------- null}
+ -t 0.140128 -s 1 -d 0 -p tcp -e 1040 -c 3 -i 2 -a 3 -x {1.0 0.4 1 ------- null}
- -t 0.140128 -s 1 -d 0 -p tcp -e 1040 -c 3 -i 2 -a 3 -x {1.0 0.4 1 ------- null}
h -t 0.140128 -s 1 -d 0 -p tcp -e 1040 -c 3 -i 2 -a 3 -x {1.0 0.4 -1 ------- null}
+ -t 0.140128 -s 1 -d 0 -p tcp -e 1040 -c 3 -i 3 -a 3 -x {1.0 0.4 2 ------- null}
- -t 0.141792 -s 1 -d 0 -p tcp -e 1040 -c 3 -i 3 -a 3 -x {1.0 0.4 2 ------- null}
h -t 0.141792 -s 1 -d 0 -p tcp -e 1040 -c 3 -i 3 -a 3 -x {1.0 0.4 -1 ------- null}
r -t 0.161792 -s 1 -d 0 -p tcp -e 1040 -c 3 -i 2 -a 3 -x {1.0 0.4 1 ------- null}
+ -t 0.161792 -s 0 -d 1 -p ack -e 40 -c 3 -i 4 -a 3 -x {0.4 1.0 1 ------- null}
- -t 0.161792 -s 0 -d 1 -p ack -e 40 -c 3 -i 4 -a 3 -x {0.4 1.0 1 ------- null}
h -t 0.161792 -s 0 -d 1 -p ack -e 40 -c 3 -i 4 -a 3 -x {0.4 1.0 -1 ------- null}
r -t 0.163456 -s 1 -d 0 -p tcp -e 1040 -c 3 -i 3 -a 3 -x {1.0 0.4 2 ------- null}
+ -t 0.163456 -s 0 -d 1 -p ack -e 40 -c 3 -i 5 -a 3 -x {0.4 1.0 2 ------- null}
- -t 0.163456 -s 0 -d 1 -p ack -e 40 -c 3 -i 5 -a 3 -x {0.4 1.0 2 ------- null}
h -t 0.163456 -s 0 -d 1 -p ack -e 40 -c 3 -i 5 -a 3 -x {0.4 1.0 -1 ------- null}
r -t 0.181856 -s 0 -d 1 -p ack -e 40 -c 3 -i 4 -a 3 -x {0.4 1.0 1 ------- null}
+ -t 0.181856 -s 1 -d 0 -p tcp -e 1040 -c 3 -i 6 -a 3 -x {1.0 0.4 3 ------- null}
- -t 0.181856 -s 1 -d 0 -p tcp -e 1040 -c 3 -i 6 -a 3 -x {1.0 0.4 3 ------- null}
h -t 0.181856 -s 1 -d 0 -p tcp -e 1040 -c 3 -i 6 -a 3 -x {1.0 0.4 -1 ------- null}
+ -t 0.181856 -s 1 -d 0 -p tcp -e 1040 -c 3 -i 7 -a 3 -x {1.0 0.4 4 ------- null}
r -t 0.18352 -s 0 -d 1 -p ack -e 40 -c 3 -i 5 -a 3 -x {0.4 1.0 2 ------- null}
+ -t 0.18352 -s 1 -d 0 -p tcp -e 1040 -c 3 -i 8 -a 3 -x {1.0 0.4 5 ------- null}
+ -t 0.18352 -s 1 -d 0 -p tcp -e 1040 -c 3 -i 9 -a 3 -x {1.0 0.4 6 ------- null}
- -t 0.18352 -s 1 -d 0 -p tcp -e 1040 -c 3 -i 7 -a 3 -x {1.0 0.4 4 ------- null}
h -t 0.18352 -s 1 -d 0 -p tcp -e 1040 -c 3 -i 7 -a 3 -x {1.0 0.4 -1 ------- null}
- -t 0.185184 -s 1 -d 0 -p tcp -e 1040 -c 3 -i 8 -a 3 -x {1.0 0.4 5 ------- null}
h -t 0.185184 -s 1 -d 0 -p tcp -e 1040 -c 3 -i 8 -a 3 -x {1.0 0.4 -1 ------- null}
- -t 0.186848 -s 1 -d 0 -p tcp -e 1040 -c 3 -i 9 -a 3 -x {1.0 0.4 6 ------- null}
h -t 0.186848 -s 1 -d 0 -p tcp -e 1040 -c 3 -i 9 -a 3 -x {1.0 0.4 -1 ------- null}
+ -t 0.2 -s 0 -d 2 -p tcp -e 40 -c 0 -i 10 -a 0 -x {0.1 2.1 0 ------- null}
- -t 0.2 -s 0 -d 2 -p tcp -e 40 -c 0 -i 10 -a 0 -x {0.1 2.1 0 ------- null}
h -t 0.2 -s 0 -d 2 -p tcp -e 40 -c 0 -i 10 -a 0 -x {0.1 2.1 -1 ------- null}
r -t 0.20352 -s 1 -d 0 -p tcp -e 1040 -c 3 -i 6 -a 3 -x {1.0 0.4 3 ------- null}
+ -t 0.20352 -s 0 -d 1 -p ack -e 40 -c 3 -i 11 -a 3 -x {0.4 1.0 3 ------- null}
- -t 0.20352 -s 0 -d 1 -p ack -e 40 -c 3 -i 11 -a 3 -x {0.4 1.0 3 ------- null}
h -t 0.20352 -s 0 -d 1 -p ack -e 40 -c 3 -i 11 -a 3 -x {0.4 1.0 -1 ------- null}
r -t 0.205184 -s 1 -d 0 -p tcp -e 1040 -c 3 -i 7 -a 3 -x {1.0 0.4 4 ------- null}
+ -t 0.205184 -s 0 -d 1 -p ack -e 40 -c 3 -i 12 -a 3 -x {0.4 1.0 4 ------- null}
- -t 0.205184 -s 0 -d 1 -p ack -e 40 -c 3 -i 12 -a 3 -x {0.4 1.0 4 ------- null}
h -t 0.205184 -s 0 -d 1 -p ack -e 40 -c 3 -i 12 -a 3 -x {0.4 1.0 -1 ------- null}
r -t 0.206848 -s 1 -d 0 -p tcp -e 1040 -c 3 -i 8 -a 3 -x {1.0 0.4 5 ------- null}
+ -t 0.206848 -s 0 -d 1 -p ack -e 40 -c 3 -i 13 -a 3 -x {0.4 1.0 5 ------- null}
- -t 0.206848 -s 0 -d 1 -p ack -e 40 -c 3 -i 13 -a 3 -x {0.4 1.0 5 ------- null}
h -t 0.206848 -s 0 -d 1 -p ack -e 40 -c 3 -i 13 -a 3 -x {0.4 1.0 -1 ------- null}
r -t 0.208512 -s 1 -d 0 -p tcp -e 1040 -c 3 -i 9 -a 3 -x {1.0 0.4 6 ------- null}
+ -t 0.208512 -s 0 -d 1 -p ack -e 40 -c 3 -i 14 -a 3 -x {0.4 1.0 6 ------- null}
- -t 0.208512 -s 0 -d 1 -p ack -e 40 -c 3 -i 14 -a 3 -x {0.4 1.0 6 ------- null}
h -t 0.208512 -s 0 -d 1 -p ack -e 40 -c 3 -i 14 -a 3 -x {0.4 1.0 -1 ------- null}
r -t 0.220064 -s 0 -d 2 -p tcp -e 40 -c 0 -i 10 -a 0 -x {0.1 2.1 0 ------- null}
+ -t 0.220064 -s 2 -d 0 -p ack -e 40 -c 0 -i 15 -a 0 -x {2.1 0.1 0 ------- null}
- -t 0.220064 -s 2 -d 0 -p ack -e 40 -c 0 -i 15 -a 0 -x {2.1 0.1 0 ------- null}
h -t 0.220064 -s 2 -d 0 -p ack -e 40 -c 0 -i 15 -a 0 -x {2.1 0.1 -1 ------- null}
r -t 0.223584 -s 0 -d 1 -p ack -e 40 -c 3 -i 11 -a 3 -x {0.4 1.0 3 ------- null}
+ -t 0.223584 -s 1 -d 0 -p tcp -e 1040 -c 3 -i 16 -a 3 -x {1.0 0.4 7 ------- null}
- -t 0.223584 -s 1 -d 0 -p tcp -e 1040 -c 3 -i 16 -a 3 -x {1.0 0.4 7 ------- null}
h -t 0.223584 -s 1 -d 0 -p tcp -e 1040 -c 3 -i 16 -a 3 -x {1.0 0.4 -1 ------- null}
+ -t 0.223584 -s 1 -d 0 -p tcp -e 1040 -c 3 -i 17 -a 3 -x {1.0 0.4 8 ------- null}
r -t 0.225248 -s 0 -d 1 -p ack -e 40 -c 3 -i 12 -a 3 -x {0.4 1.0 4 ------- null}
+ -t 0.225248 -s 1 -d 0 -p tcp -e 1040 -c 3 -i 18 -a 3 -x {1.0 0.4 9 ------- null}
+ -t 0.225248 -s 1 -d 0 -p tcp -e 1040 -c 3 -i 19 -a 3 -x {1.0 0.4 10 ------- null}
- -t 0.225248 -s 1 -d 0 -p tcp -e 1040 -c 3 -i 17 -a 3 -x {1.0 0.4 8 ------- null}
h -t 0.225248 -s 1 -d 0 -p tcp -e 1040 -c 3 -i 17 -a 3 -x {1.0 0.4 -1 ------- null}
r -t 0.226912 -s 0 -d 1 -p ack -e 40 -c 3 -i 13 -a 3 -x {0.4 1.0 5 ------- null}
+ -t 0.226912 -s 1 -d 0 -p tcp -e 1040 -c 3 -i 20 -a 3 -x {1.0 0.4 11 ------- null}
+ -t 0.226912 -s 1 -d 0 -p tcp -e 1040 -c 3 -i 21 -a 3 -x {1.0 0.4 12 ------- null}
- -t 0.226912 -s 1 -d 0 -p tcp -e 1040 -c 3 -i 18 -a 3 -x {1.0 0.4 9 ------- null}
h -t 0.226912 -s 1 -d 0 -p tcp -e 1040 -c 3 -i 18 -a 3 -x {1.0 0.4 -1 ------- null}
r -t 0.228576 -s 0 -d 1 -p ack -e 40 -c 3 -i 14 -a 3 -x {0.4 1.0 6 ------- null}
+ -t 0.228576 -s 1 -d 0 -p tcp -e 1040 -c 3 -i 22 -a 3 -x {1.0 0.4 13 ------- null}
+ -t 0.228576 -s 1 -d 0 -p tcp -e 1040 -c 3 -i 23 -a 3 -x {1.0 0.4 14 ------- null}
- -t 0.228576 -s 1 -d 0 -p tcp -e 1040 -c 3 -i 19 -a 3 -x {1.0 0.4 10 ------- null}
h -t 0.228576 -s 1 -d 0 -p tcp -e 1040 -c 3 -i 19 -a 3 -x {1.0 0.4 -1 ------- null}
- -t 0.23024 -s 1 -d 0 -p tcp -e 1040 -c 3 -i 20 -a 3 -x {1.0 0.4 11 ------- null}
h -t 0.23024 -s 1 -d 0 -p tcp -e 1040 -c 3 -i 20 -a 3 -x {1.0 0.4 -1 ------- null}
- -t 0.231904 -s 1 -d 0 -p tcp -e 1040 -c 3 -i 21 -a 3 -x {1.0 0.4 12 ------- null}
h -t 0.231904 -s 1 -d 0 -p tcp -e 1040 -c 3 -i 21 -a 3 -x {1.0 0.4 -1 ------- null}
- -t 0.233568 -s 1 -d 0 -p tcp -e 1040 -c 3 -i 22 -a 3 -x {1.0 0.4 13 ------- null}
h -t 0.233568 -s 1 -d 0 -p tcp -e 1040 -c 3 -i 22 -a 3 -x {1.0 0.4 -1 ------- null}
- -t 0.235232 -s 1 -d 0 -p tcp -e 1040 -c 3 -i 23 -a 3 -x {1.0 0.4 14 ------- null}
h -t 0.235232 -s 1 -d 0 -p tcp -e 1040 -c 3 -i 23 -a 3 -x {1.0 0.4 -1 ------- null}
r -t 0.240128 -s 2 -d 0 -p ack -e 40 -c 0 -i 15 -a 0 -x {2.1 0.1 0 ------- null}
+ -t 0.240128 -s 0 -d 2 -p tcp -e 1040 -c 0 -i 24 -a 0 -x {0.1 2.1 1 ------- null}
- -t 0.240128 -s 0 -d 2 -p tcp -e 1040 -c 0 -i 24 -a 0 -x {0.1 2.1 1 ------- null}
h -t 0.240128 -s 0 -d 2 -p tcp -e 1040 -c 0 -i 24 -a 0 -x {0.1 2.1 -1 ------- null}
+ -t 0.240128 -s 0 -d 2 -p tcp -e 1040 -c 0 -i 25 -a 0 -x {0.1 2.1 2 ------- null}
- -t 0.241792 -s 0 -d 2 -p tcp -e 1040 -c 0 -i 25 -a 0 -x {0.1 2.1 2 ------- null}
h -t 0.241792 -s 0 -d 2 -p tcp -e 1040 -c 0 -i 25 -a 0 -x {0.1 2.1 -1 ------- null}
r -t 0.245248 -s 1 -d 0 -p tcp -e 1040 -c 3 -i 16 -a 3 -x {1.0 0.4 7 ------- null}
+ -t 0.245248 -s 0 -d 1 -p ack -e 40 -c 3 -i 26 -a 3 -x {0.4 1.0 7 ------- null}
- -t 0.245248 -s 0 -d 1 -p ack -e 40 -c 3 -i 26 -a 3 -x {0.4 1.0 7 ------- null}
h -t 0.245248 -s 0 -d 1 -p ack -e 40 -c 3 -i 26 -a 3 -x {0.4 1.0 -1 ------- null}
r -t 0.246912 -s 1 -d 0 -p tcp -e 1040 -c 3 -i 17 -a 3 -x {1.0 0.4 8 ------- null}
+ -t 0.246912 -s 0 -d 1 -p ack -e 40 -c 3 -i 27 -a 3 -x {0.4 1.0 8 ------- null}
- -t 0.246912 -s 0 -d 1 -p ack -e 40 -c 3 -i 27 -a 3 -x {0.4 1.0 8 ------- null}
h -t 0.246912 -s 0 -d 1 -p ack -e 40 -c 3 -i 27 -a 3 -x {0.4 1.0 -1 ------- null}
r -t 0.248576 -s 1 -d 0 -p tcp -e 1040 -c 3 -i 18 -a 3 -x {1.0 0.4 9 ------- null}
+ -t 0.248576 -s 0 -d 1 -p ack -e 40 -c 3 -i 28 -a 3 -x {0.4 1.0 9 ------- null}
- -t 0.248576 -s 0 -d 1 -p ack -e 40 -c 3 -i 28 -a 3 -x {0.4 1.0 9 ------- null}
h -t 0.248576 -s 0 -d 1 -p ack -e 40 -c 3 -i 28 -a 3 -x {0.4 1.0 -1 ------- null}
r -t 0.25024 -s 1 -d 0 -p tcp -e 1040 -c 3 -i 19 -a 3 -x {1.0 0.4 10 ------- null}
+ -t 0.25024 -s 0 -d 1 -p ack -e 40 -c 3 -i 29 -a 3 -x {0.4 1.0 10 ------- null}
- -t 0.25024 -s 0 -d 1 -p ack -e 40 -c 3 -i 29 -a 3 -x {0.4 1.0 10 ------- null}
h -t 0.25024 -s 0 -d 1 -p ack -e 40 -c 3 -i 29 -a 3 -x {0.4 1.0 -1 ------- null}
r -t 0.251904 -s 1 -d 0 -p tcp -e 1040 -c 3 -i 20 -a 3 -x {1.0 0.4 11 ------- null}
+ -t 0.251904 -s 0 -d 1 -p ack -e 40 -c 3 -i 30 -a 3 -x {0.4 1.0 11 ------- null}
- -t 0.251904 -s 0 -d 1 -p ack -e 40 -c 3 -i 30 -a 3 -x {0.4 1.0 11 ------- null}
h -t 0.251904 -s 0 -d 1 -p ack -e 40 -c 3 -i 30 -a 3 -x {0.4 1.0 -1 ------- null}
r -t 0.253568 -s 1 -d 0 -p tcp -e 1040 -c 3 -i 21 -a 3 -x {1.0 0.4 12 ------- null}
+ -t 0.253568 -s 0 -d 1 -p ack -e 40 -c 3 -i 31 -a 3 -x {0.4 1.0 12 ------- null}
- -t 0.253568 -s 0 -d 1 -p ack -e 40 -c 3 -i 31 -a 3 -x {0.4 1.0 12 ------- null}
h -t 0.253568 -s 0 -d 1 -p ack -e 40 -c 3 -i 31 -a 3 -x {0.4 1.0 -1 ------- null}
r -t 0.255232 -s 1 -d 0 -p tcp -e 1040 -c 3 -i 22 -a 3 -x {1.0 0.4 13 ------- null}
+ -t 0.255232 -s 0 -d 1 -p ack -e 40 -c 3 -i 32 -a 3 -x {0.4 1.0 13 ------- null}
- -t 0.255232 -s 0 -d 1 -p ack -e 40 -c 3 -i 32 -a 3 -x {0.4 1.0 13 ------- null}
h -t 0.255232 -s 0 -d 1 -p ack -e 40 -c 3 -i 32 -a 3 -x {0.4 1.0 -1 ------- null}
r -t 0.256896 -s 1 -d 0 -p tcp -e 1040 -c 3 -i 23 -a 3 -x {1.0 0.4 14 ------- null}
+ -t 0.256896 -s 0 -d 1 -p ack -e 40 -c 3 -i 33 -a 3 -x {0.4 1.0 14 ------- null}
- -t 0.256896 -s 0 -d 1 -p ack -e 40 -c 3 -i 33 -a 3 -x {0.4 1.0 14 ------- null}
h -t 0.256896 -s 0 -d 1 -p ack -e 40 -c 3 -i 33 -a 3 -x {0.4 1.0 -1 ------- null}
r -t 0.261792 -s 0 -d 2 -p tcp -e 1040 -c 0 -i 24 -a 0 -x {0.1 2.1 1 ------- null}
+ -t 0.261792 -s 2 -d 0 -p ack -e 40 -c 0 -i 34 -a 0 -x {2.1 0.1 1 ------- null}
- -t 0.261792 -s 2 -d 0 -p ack -e 40 -c 0 -i 34 -a 0 -x {2.1 0.1 1 ------- null}
h -t 0.261792 -s 2 -d 0 -p ack -e 40 -c 0 -i 34 -a 0 -x {2.1 0.1 -1 ------- null}
r -t 0.263456 -s 0 -d 2 -p tcp -e 1040 -c 0 -i 25 -a 0 -x {0.1 2.1 2 ------- null}
+ -t 0.263456 -s 2 -d 0 -p ack -e 40 -c 0 -i 35 -a 0 -x {2.1 0.1 2 ------- null}
- -t 0.263456 -s 2 -d 0 -p ack -e 40 -c 0 -i 35 -a 0 -x {2.1 0.1 2 ------- null}
h -t 0.263456 -s 2 -d 0 -p ack -e 40 -c 0 -i 35 -a 0 -x {2.1 0.1 -1 ------- null}
r -t 0.265312 -s 0 -d 1 -p ack -e 40 -c 3 -i 26 -a 3 -x {0.4 1.0 7 ------- null}
+ -t 0.265312 -s 1 -d 0 -p tcp -e 1040 -c 3 -i 36 -a 3 -x {1.0 0.4 15 ------- null}
- -t 0.265312 -s 1 -d 0 -p tcp -e 1040 -c 3 -i 36 -a 3 -x {1.0 0.4 15 ------- null}
h -t 0.265312 -s 1 -d 0 -p tcp -e 1040 -c 3 -i 36 -a 3 -x {1.0 0.4 -1 ------- null}
+ -t 0.265312 -s 1 -d 0 -p tcp -e 1040 -c 3 -i 37 -a 3 -x {1.0 0.4 16 ------- null}
r -t 0.266976 -s 0 -d 1 -p ack -e 40 -c 3 -i 27 -a 3 -x {0.4 1.0 8 ------- null}
+ -t 0.266976 -s 1 -d 0 -p tcp -e 1040 -c 3 -i 38 -a 3 -x {1.0 0.4 17 ------- null}
+ -t 0.266976 -s 1 -d 0 -p tcp -e 1040 -c 3 -i 39 -a 3 -x {1.0 0.4 18 ------- null}
- -t 0.266976 -s 1 -d 0 -p tcp -e 1040 -c 3 -i 37 -a 3 -x {1.0 0.4 16 ------- null}
h -t 0.266976 -s 1 -d 0 -p tcp -e 1040 -c 3 -i 37 -a 3 -x {1.0 0.4 -1 ------- null}
r -t 0.26864 -s 0 -d 1 -p ack -e 40 -c 3 -i 28 -a 3 -x {0.4 1.0 9 ------- null}
+ -t 0.26864 -s 1 -d 0 -p tcp -e 1040 -c 3 -i 40 -a 3 -x {1.0 0.4 19 ------- null}
+ -t 0.26864 -s 1 -d 0 -p tcp -e 1040 -c 3 -i 41 -a 3 -x {1.0 0.4 20 ------- null}
- -t 0.26864 -s 1 -d 0 -p tcp -e 1040 -c 3 -i 38 -a 3 -x {1.0 0.4 17 ------- null}
h -t 0.26864 -s 1 -d 0 -p tcp -e 1040 -c 3 -i 38 -a 3 -x {1.0 0.4 -1 ------- null}
r -t 0.270304 -s 0 -d 1 -p ack -e 40 -c 3 -i 29 -a 3 -x {0.4 1.0 10 ------- null}
+ -t 0.270304 -s 1 -d 0 -p tcp -e 1040 -c 3 -i 42 -a 3 -x {1.0 0.4 21 ------- null}
+ -t 0.270304 -s 1 -d 0 -p tcp -e 1040 -c 3 -i 43 -a 3 -x {1.0 0.4 22 ------- null}
- -t 0.270304 -s 1 -d 0 -p tcp -e 1040 -c 3 -i 39 -a 3 -x {1.0 0.4 18 ------- null}
h -t 0.270304 -s 1 -d 0 -p tcp -e 1040 -c 3 -i 39 -a 3 -x {1.0 0.4 -1 ------- null}
r -t 0.271968 -s 0 -d 1 -p ack -e 40 -c 3 -i 30 -a 3 -x {0.4 1.0 11 ------- null}
+ -t 0.271968 -s 1 -d 0 -p tcp -e 1040 -c 3 -i 44 -a 3 -x {1.0 0.4 23 ------- null}
+ -t 0.271968 -s 1 -d 0 -p tcp -e 1040 -c 3 -i 45 -a 3 -x {1.0 0.4 24 ------- null}
- -t 0.271968 -s 1 -d 0 -p tcp -e 1040 -c 3 -i 40 -a 3 -x {1.0 0.4 19 ------- null}
h -t 0.271968 -s 1 -d 0 -p tcp -e 1040 -c 3 -i 40 -a 3 -x {1.0 0.4 -1 ------- null}
r -t 0.273632 -s 0 -d 1 -p ack -e 40 -c 3 -i 31 -a 3 -x {0.4 1.0 12 ------- null}
+ -t 0.273632 -s 1 -d 0 -p tcp -e 1040 -c 3 -i 46 -a 3 -x {1.0 0.4 25 ------- null}
+ -t 0.273632 -s 1 -d 0 -p tcp -e 1040 -c 3 -i 47 -a 3 -x {1.0 0.4 26 ------- null}
- -t 0.273632 -s 1 -d 0 -p tcp -e 1040 -c 3 -i 41 -a 3 -x {1.0 0.4 20 ------- null}
h -t 0.273632 -s 1 -d 0 -p tcp -e 1040 -c 3 -i 41 -a 3 -x {1.0 0.4 -1 ------- null}
r -t 0.275296 -s 0 -d 1 -p ack -e 40 -c 3 -i 32 -a 3 -x {0.4 1.0 13 ------- null}
+ -t 0.275296 -s 1 -d 0 -p tcp -e 1040 -c 3 -i 48 -a 3 -x {1.0 0.4 27 ------- null}
+ -t 0.275296 -s 1 -d 0 -p tcp -e 1040 -c 3 -i 49 -a 3 -x {1.0 0.4 28 ------- null}
- -t 0.275296 -s 1 -d 0 -p tcp -e 1040 -c 3 -i 42 -a 3 -x {1.0 0.4 21 ------- null}
h -t 0.275296 -s 1 -d 0 -p tcp -e 1040 -c 3 -i 42 -a 3 -x {1.0 0.4 -1 ------- null}
r -t 0.27696 -s 0 -d 1 -p ack -e 40 -c 3 -i 33 -a 3 -x {0.4 1.0 14 ------- null}
+ -t 0.27696 -s 1 -d 0 -p tcp -e 1040 -c 3 -i 50 -a 3 -x {1.0 0.4 29 ------- null}
+ -t 0.27696 -s 1 -d 0 -p tcp -e 1040 -c 3 -i 51 -a 3 -x {1.0 0.4 30 ------- null}
- -t 0.27696 -s 1 -d 0 -p tcp -e 1040 -c 3 -i 43 -a 3 -x {1.0 0.4 22 ------- null}
h -t 0.27696 -s 1 -d 0 -p tcp -e 1040 -c 3 -i 43 -a 3 -x {1.0 0.4 -1 ------- null}
- -t 0.278624 -s 1 -d 0 -p tcp -e 1040 -c 3 -i 44 -a 3 -x {1.0 0.4 23 ------- null}
h -t 0.278624 -s 1 -d 0 -p tcp -e 1040 -c 3 -i 44 -a 3 -x {1.0 0.4 -1 ------- null}
- -t 0.280288 -s 1 -d 0 -p tcp -e 1040 -c 3 -i 45 -a 3 -x {1.0 0.4 24 ------- null}
h -t 0.280288 -s 1 -d 0 -p tcp -e 1040 -c 3 -i 45 -a 3 -x {1.0 0.4 -1 ------- null}
r -t 0.281856 -s 2 -d 0 -p ack -e 40 -c 0 -i 34 -a 0 -x {2.1 0.1 1 ------- null}
+ -t 0.281856 -s 0 -d 2 -p tcp -e 1040 -c 0 -i 52 -a 0 -x {0.1 2.1 3 ------- null}
- -t 0.281856 -s 0 -d 2 -p tcp -e 1040 -c 0 -i 52 -a 0 -x {0.1 2.1 3 ------- null}
h -t 0.281856 -s 0 -d 2 -p tcp -e 1040 -c 0 -i 52 -a 0 -x {0.1 2.1 -1 ------- null}
+ -t 0.281856 -s 0 -d 2 -p tcp -e 1040 -c 0 -i 53 -a 0 -x {0.1 2.1 4 ------- null}
- -t 0.281952 -s 1 -d 0 -p tcp -e 1040 -c 3 -i 46 -a 3 -x {1.0 0.4 25 ------- null}
h -t 0.281952 -s 1 -d 0 -p tcp -e 1040 -c 3 -i 46 -a 3 -x {1.0 0.4 -1 ------- null}
r -t 0.28352 -s 2 -d 0 -p ack -e 40 -c 0 -i 35 -a 0 -x {2.1 0.1 2 ------- null}
+ -t 0.28352 -s 0 -d 2 -p tcp -e 1040 -c 0 -i 54 -a 0 -x {0.1 2.1 5 ------- null}
+ -t 0.28352 -s 0 -d 2 -p tcp -e 1040 -c 0 -i 55 -a 0 -x {0.1 2.1 6 ------- null}
- -t 0.28352 -s 0 -d 2 -p tcp -e 1040 -c 0 -i 53 -a 0 -x {0.1 2.1 4 ------- null}
h -t 0.28352 -s 0 -d 2 -p tcp -e 1040 -c 0 -i 53 -a 0 -x {0.1 2.1 -1 ------- null}
- -t 0.283616 -s 1 -d 0 -p tcp -e 1040 -c 3 -i 47 -a 3 -x {1.0 0.4 26 ------- null}
h -t 0.283616 -s 1 -d 0 -p tcp -e 1040 -c 3 -i 47 -a 3 -x {1.0 0.4 -1 ------- null}
- -t 0.285184 -s 0 -d 2 -p tcp -e 1040 -c 0 -i 54 -a 0 -x {0.1 2.1 5 ------- null}
h -t 0.285184 -s 0 -d 2 -p tcp -e 1040 -c 0 -i 54 -a 0 -x {0.1 2.1 -1 ------- null}
- -t 0.28528 -s 1 -d 0 -p tcp -e 1040 -c 3 -i 48 -a 3 -x {1.0 0.4 27 ------- null}
h -t 0.28528 -s 1 -d 0 -p tcp -e 1040 -c 3 -i 48 -a 3 -x {1.0 0.4 -1 ------- null}
- -t 0.286848 -s 0 -d 2 -p tcp -e 1040 -c 0 -i 55 -a 0 -x {0.1 2.1 6 ------- null}
h -t 0.286848 -s 0 -d 2 -p tcp -e 1040 -c 0 -i 55 -a 0 -x {0.1 2.1 -1 ------- null}
- -t 0.286944 -s 1 -d 0 -p tcp -e 1040 -c 3 -i 49 -a 3 -x {1.0 0.4 28 ------- null}
h -t 0.286944 -s 1 -d 0 -p tcp -e 1040 -c 3 -i 49 -a 3 -x {1.0 0.4 -1 ------- null}
r -t 0.286976 -s 1 -d 0 -p tcp -e 1040 -c 3 -i 36 -a 3 -x {1.0 0.4 15 ------- null}
+ -t 0.286976 -s 0 -d 1 -p ack -e 40 -c 3 -i 56 -a 3 -x {0.4 1.0 15 ------- null}
- -t 0.286976 -s 0 -d 1 -p ack -e 40 -c 3 -i 56 -a 3 -x {0.4 1.0 15 ------- null}
h -t 0.286976 -s 0 -d 1 -p ack -e 40 -c 3 -i 56 -a 3 -x {0.4 1.0 -1 ------- null}
- -t 0.288608 -s 1 -d 0 -p tcp -e 1040 -c 3 -i 50 -a 3 -x {1.0 0.4 29 ------- null}
h -t 0.288608 -s 1 -d 0 -p tcp -e 1040 -c 3 -i 50 -a 3 -x {1.0 0.4 -1 ------- null}
r -t 0.28864 -s 1 -d 0 -p tcp -e 1040 -c 3 -i 37 -a 3 -x {1.0 0.4 16 ------- null}
+ -t 0.28864 -s 0 -d 1 -p ack -e 40 -c 3 -i 57 -a 3 -x {0.4 1.0 16 ------- null}
- -t 0.28864 -s 0 -d 1 -p ack -e 40 -c 3 -i 57 -a 3 -x {0.4 1.0 16 ------- null}
h -t 0.28864 -s 0 -d 1 -p ack -e 40 -c 3 -i 57 -a 3 -x {0.4 1.0 -1 ------- null}
- -t 0.290272 -s 1 -d 0 -p tcp -e 1040 -c 3 -i 51 -a 3 -x {1.0 0.4 30 ------- null}
h -t 0.290272 -s 1 -d 0 -p tcp -e 1040 -c 3 -i 51 -a 3 -x {1.0 0.4 -1 ------- null}
r -t 0.290304 -s 1 -d 0 -p tcp -e 1040 -c 3 -i 38 -a 3 -x {1.0 0.4 17 ------- null}
+ -t 0.290304 -s 0 -d 1 -p ack -e 40 -c 3 -i 58 -a 3 -x {0.4 1.0 17 ------- null}
- -t 0.290304 -s 0 -d 1 -p ack -e 40 -c 3 -i 58 -a 3 -x {0.4 1.0 17 ------- null}
h -t 0.290304 -s 0 -d 1 -p ack -e 40 -c 3 -i 58 -a 3 -x {0.4 1.0 -1 ------- null}
r -t 0.291968 -s 1 -d 0 -p tcp -e 1040 -c 3 -i 39 -a 3 -x {1.0 0.4 18 ------- null}
+ -t 0.291968 -s 0 -d 1 -p ack -e 40 -c 3 -i 59 -a 3 -x {0.4 1.0 18 ------- null}
- -t 0.291968 -s 0 -d 1 -p ack -e 40 -c 3 -i 59 -a 3 -x {0.4 1.0 18 ------- null}
h -t 0.291968 -s 0 -d 1 -p ack -e 40 -c 3 -i 59 -a 3 -x {0.4 1.0 -1 ------- null}
r -t 0.293632 -s 1 -d 0 -p tcp -e 1040 -c 3 -i 40 -a 3 -x {1.0 0.4 19 ------- null}
+ -t 0.293632 -s 0 -d 1 -p ack -e 40 -c 3 -i 60 -a 3 -x {0.4 1.0 19 ------- null}
- -t 0.293632 -s 0 -d 1 -p ack -e 40 -c 3 -i 60 -a 3 -x {0.4 1.0 19 ------- null}
h -t 0.293632 -s 0 -d 1 -p ack -e 40 -c 3 -i 60 -a 3 -x {0.4 1.0 -1 ------- null}
r -t 0.295296 -s 1 -d 0 -p tcp -e 1040 -c 3 -i 41 -a 3 -x {1.0 0.4 20 ------- null}
+ -t 0.295296 -s 0 -d 1 -p ack -e 40 -c 3 -i 61 -a 3 -x {0.4 1.0 20 ------- null}
- -t 0.295296 -s 0 -d 1 -p ack -e 40 -c 3 -i 61 -a 3 -x {0.4 1.0 20 ------- null}
h -t 0.295296 -s 0 -d 1 -p ack -e 40 -c 3 -i 61 -a 3 -x {0.4 1.0 -1 ------- null}
r -t 0.29696 -s 1 -d 0 -p tcp -e 1040 -c 3 -i 42 -a 3 -x {1.0 0.4 21 ------- null}
+ -t 0.29696 -s 0 -d 1 -p ack -e 40 -c 3 -i 62 -a 3 -x {0.4 1.0 21 ------- null}
- -t 0.29696 -s 0 -d 1 -p ack -e 40 -c 3 -i 62 -a 3 -x {0.4 1.0 21 ------- null}
h -t 0.29696 -s 0 -d 1 -p ack -e 40 -c 3 -i 62 -a 3 -x {0.4 1.0 -1 ------- null}
r -t 0.298624 -s 1 -d 0 -p tcp -e 1040 -c 3 -i 43 -a 3 -x {1.0 0.4 22 ------- null}
+ -t 0.298624 -s 0 -d 1 -p ack -e 40 -c 3 -i 63 -a 3 -x {0.4 1.0 22 ------- null}
- -t 0.298624 -s 0 -d 1 -p ack -e 40 -c 3 -i 63 -a 3 -x {0.4 1.0 22 ------- null}
h -t 0.298624 -s 0 -d 1 -p ack -e 40 -c 3 -i 63 -a 3 -x {0.4 1.0 -1 ------- null}
r -t 0.300288 -s 1 -d 0 -p tcp -e 1040 -c 3 -i 44 -a 3 -x {1.0 0.4 23 ------- null}
+ -t 0.300288 -s 0 -d 1 -p ack -e 40 -c 3 -i 64 -a 3 -x {0.4 1.0 23 ------- null}
- -t 0.300288 -s 0 -d 1 -p ack -e 40 -c 3 -i 64 -a 3 -x {0.4 1.0 23 ------- null}
h -t 0.300288 -s 0 -d 1 -p ack -e 40 -c 3 -i 64 -a 3 -x {0.4 1.0 -1 ------- null}
r -t 0.301952 -s 1 -d 0 -p tcp -e 1040 -c 3 -i 45 -a 3 -x {1.0 0.4 24 ------- null}
+ -t 0.301952 -s 0 -d 1 -p ack -e 40 -c 3 -i 65 -a 3 -x {0.4 1.0 24 ------- null}
- -t 0.301952 -s 0 -d 1 -p ack -e 40 -c 3 -i 65 -a 3 -x {0.4 1.0 24 ------- null}
h -t 0.301952 -s 0 -d 1 -p ack -e 40 -c 3 -i 65 -a 3 -x {0.4 1.0 -1 ------- null}
r -t 0.30352 -s 0 -d 2 -p tcp -e 1040 -c 0 -i 52 -a 0 -x {0.1 2.1 3 ------- null}
+ -t 0.30352 -s 2 -d 0 -p ack -e 40 -c 0 -i 66 -a 0 -x {2.1 0.1 3 ------- null}
- -t 0.30352 -s 2 -d 0 -p ack -e 40 -c 0 -i 66 -a 0 -x {2.1 0.1 3 ------- null}
h -t 0.30352 -s 2 -d 0 -p ack -e 40 -c 0 -i 66 -a 0 -x {2.1 0.1 -1 ------- null}
r -t 0.303616 -s 1 -d 0 -p tcp -e 1040 -c 3 -i 46 -a 3 -x {1.0 0.4 25 ------- null}
+ -t 0.303616 -s 0 -d 1 -p ack -e 40 -c 3 -i 67 -a 3 -x {0.4 1.0 25 ------- null}
- -t 0.303616 -s 0 -d 1 -p ack -e 40 -c 3 -i 67 -a 3 -x {0.4 1.0 25 ------- null}
h -t 0.303616 -s 0 -d 1 -p ack -e 40 -c 3 -i 67 -a 3 -x {0.4 1.0 -1 ------- null}
r -t 0.305184 -s 0 -d 2 -p tcp -e 1040 -c 0 -i 53 -a 0 -x {0.1 2.1 4 ------- null}
+ -t 0.305184 -s 2 -d 0 -p ack -e 40 -c 0 -i 68 -a 0 -x {2.1 0.1 4 ------- null}
- -t 0.305184 -s 2 -d 0 -p ack -e 40 -c 0 -i 68 -a 0 -x {2.1 0.1 4 ------- null}
h -t 0.305184 -s 2 -d 0 -p ack -e 40 -c 0 -i 68 -a 0 -x {2.1 0.1 -1 ------- null}
r -t 0.30528 -s 1 -d 0 -p tcp -e 1040 -c 3 -i 47 -a 3 -x {1.0 0.4 26 ------- null}
+ -t 0.30528 -s 0 -d 1 -p ack -e 40 -c 3 -i 69 -a 3 -x {0.4 1.0 26 ------- null}
- -t 0.30528 -s 0 -d 1 -p ack -e 40 -c 3 -i 69 -a 3 -x {0.4 1.0 26 ------- null}
h -t 0.30528 -s 0 -d 1 -p ack -e 40 -c 3 -i 69 -a 3 -x {0.4 1.0 -1 ------- null}
r -t 0.306848 -s 0 -d 2 -p tcp -e 1040 -c 0 -i 54 -a 0 -x {0.1 2.1 5 ------- null}
+ -t 0.306848 -s 2 -d 0 -p ack -e 40 -c 0 -i 70 -a 0 -x {2.1 0.1 5 ------- null}
- -t 0.306848 -s 2 -d 0 -p ack -e 40 -c 0 -i 70 -a 0 -x {2.1 0.1 5 ------- null}
h -t 0.306848 -s 2 -d 0 -p ack -e 40 -c 0 -i 70 -a 0 -x {2.1 0.1 -1 ------- null}
r -t 0.306944 -s 1 -d 0 -p tcp -e 1040 -c 3 -i 48 -a 3 -x {1.0 0.4 27 ------- null}
+ -t 0.306944 -s 0 -d 1 -p ack -e 40 -c 3 -i 71 -a 3 -x {0.4 1.0 27 ------- null}
- -t 0.306944 -s 0 -d 1 -p ack -e 40 -c 3 -i 71 -a 3 -x {0.4 1.0 27 ------- null}
h -t 0.306944 -s 0 -d 1 -p ack -e 40 -c 3 -i 71 -a 3 -x {0.4 1.0 -1 ------- null}
r -t 0.30704 -s 0 -d 1 -p ack -e 40 -c 3 -i 56 -a 3 -x {0.4 1.0 15 ------- null}
+ -t 0.30704 -s 1 -d 0 -p tcp -e 1040 -c 3 -i 72 -a 3 -x {1.0 0.4 31 ------- null}
- -t 0.30704 -s 1 -d 0 -p tcp -e 1040 -c 3 -i 72 -a 3 -x {1.0 0.4 31 ------- null}
h -t 0.30704 -s 1 -d 0 -p tcp -e 1040 -c 3 -i 72 -a 3 -x {1.0 0.4 -1 ------- null}
+ -t 0.30704 -s 1 -d 0 -p tcp -e 1040 -c 3 -i 73 -a 3 -x {1.0 0.4 32 ------- null}
r -t 0.308512 -s 0 -d 2 -p tcp -e 1040 -c 0 -i 55 -a 0 -x {0.1 2.1 6 ------- null}
+ -t 0.308512 -s 2 -d 0 -p ack -e 40 -c 0 -i 74 -a 0 -x {2.1 0.1 6 ------- null}
- -t 0.308512 -s 2 -d 0 -p ack -e 40 -c 0 -i 74 -a 0 -x {2.1 0.1 6 ------- null}
h -t 0.308512 -s 2 -d 0 -p ack -e 40 -c 0 -i 74 -a 0 -x {2.1 0.1 -1 ------- null}
r -t 0.308608 -s 1 -d 0 -p tcp -e 1040 -c 3 -i 49 -a 3 -x {1.0 0.4 28 ------- null}
+ -t 0.308608 -s 0 -d 1 -p ack -e 40 -c 3 -i 75 -a 3 -x {0.4 1.0 28 ------- null}
- -t 0.308608 -s 0 -d 1 -p ack -e 40 -c 3 -i 75 -a 3 -x {0.4 1.0 28 ------- null}
h -t 0.308608 -s 0 -d 1 -p ack -e 40 -c 3 -i 75 -a 3 -x {0.4 1.0 -1 ------- null}
r -t 0.308704 -s 0 -d 1 -p ack -e 40 -c 3 -i 57 -a 3 -x {0.4 1.0 16 ------- null}
+ -t 0.308704 -s 1 -d 0 -p tcp -e 1040 -c 3 -i 76 -a 3 -x {1.0 0.4 33 ------- null}
+ -t 0.308704 -s 1 -d 0 -p tcp -e 1040 -c 3 -i 77 -a 3 -x {1.0 0.4 34 ------- null}
- -t 0.308704 -s 1 -d 0 -p tcp -e 1040 -c 3 -i 73 -a 3 -x {1.0 0.4 32 ------- null}
h -t 0.308704 -s 1 -d 0 -p tcp -e 1040 -c 3 -i 73 -a 3 -x {1.0 0.4 -1 ------- null}
r -t 0.310272 -s 1 -d 0 -p tcp -e 1040 -c 3 -i 50 -a 3 -x {1.0 0.4 29 ------- null}
+ -t 0.310272 -s 0 -d 1 -p ack -e 40 -c 3 -i 78 -a 3 -x {0.4 1.0 29 ------- null}
- -t 0.310272 -s 0 -d 1 -p ack -e 40 -c 3 -i 78 -a 3 -x {0.4 1.0 29 ------- null}
h -t 0.310272 -s 0 -d 1 -p ack -e 40 -c 3 -i 78 -a 3 -x {0.4 1.0 -1 ------- null}
r -t 0.310368 -s 0 -d 1 -p ack -e 40 -c 3 -i 58 -a 3 -x {0.4 1.0 17 ------- null}
+ -t 0.310368 -s 1 -d 0 -p tcp -e 1040 -c 3 -i 79 -a 3 -x {1.0 0.4 35 ------- null}
+ -t 0.310368 -s 1 -d 0 -p tcp -e 1040 -c 3 -i 80 -a 3 -x {1.0 0.4 36 ------- null}
- -t 0.310368 -s 1 -d 0 -p tcp -e 1040 -c 3 -i 76 -a 3 -x {1.0 0.4 33 ------- null}
h -t 0.310368 -s 1 -d 0 -p tcp -e 1040 -c 3 -i 76 -a 3 -x {1.0 0.4 -1 ------- null}
r -t 0.311936 -s 1 -d 0 -p tcp -e 1040 -c 3 -i 51 -a 3 -x {1.0 0.4 30 ------- null}
+ -t 0.311936 -s 0 -d 1 -p ack -e 40 -c 3 -i 81 -a 3 -x {0.4 1.0 30 ------- null}
- -t 0.311936 -s 0 -d 1 -p ack -e 40 -c 3 -i 81 -a 3 -x {0.4 1.0 30 ------- null}
h -t 0.311936 -s 0 -d 1 -p ack -e 40 -c 3 -i 81 -a 3 -x {0.4 1.0 -1 ------- null}
r -t 0.312032 -s 0 -d 1 -p ack -e 40 -c 3 -i 59 -a 3 -x {0.4 1.0 18 ------- null}
+ -t 0.312032 -s 1 -d 0 -p tcp -e 1040 -c 3 -i 82 -a 3 -x {1.0 0.4 37 ------- null}
+ -t 0.312032 -s 1 -d 0 -p tcp -e 1040 -c 3 -i 83 -a 3 -x {1.0 0.4 38 ------- null}
- -t 0.312032 -s 1 -d 0 -p tcp -e 1040 -c 3 -i 77 -a 3 -x {1.0 0.4 34 ------- null}
h -t 0.312032 -s 1 -d 0 -p tcp -e 1040 -c 3 -i 77 -a 3 -x {1.0 0.4 -1 ------- null}
r -t 0.313696 -s 0 -d 1 -p ack -e 40 -c 3 -i 60 -a 3 -x {0.4 1.0 19 ------- null}
+ -t 0.313696 -s 1 -d 0 -p tcp -e 1040 -c 3 -i 84 -a 3 -x {1.0 0.4 39 ------- null}
- -t 0.313696 -s 1 -d 0 -p tcp -e 1040 -c 3 -i 79 -a 3 -x {1.0 0.4 35 ------- null}
h -t 0.313696 -s 1 -d 0 -p tcp -e 1040 -c 3 -i 79 -a 3 -x {1.0 0.4 -1 ------- null}
r -t 0.31536 -s 0 -d 1 -p ack -e 40 -c 3 -i 61 -a 3 -x {0.4 1.0 20 ------- null}
+ -t 0.31536 -s 1 -d 0 -p tcp -e 1040 -c 3 -i 85 -a 3 -x {1.0 0.4 40 ------- null}
- -t 0.31536 -s 1 -d 0 -p tcp -e 1040 -c 3 -i 80 -a 3 -x {1.0 0.4 36 ------- null}
h -t 0.31536 -s 1 -d 0 -p tcp -e 1040 -c 3 -i 80 -a 3 -x {1.0 0.4 -1 ------- null}
r -t 0.317024 -s 0 -d 1 -p ack -e 40 -c 3 -i 62 -a 3 -x {0.4 1.0 21 ------- null}
+ -t 0.317024 -s 1 -d 0 -p tcp -e 1040 -c 3 -i 86 -a 3 -x {1.0 0.4 41 ------- null}
- -t 0.317024 -s 1 -d 0 -p tcp -e 1040 -c 3 -i 82 -a 3 -x {1.0 0.4 37 ------- null}
h -t 0.317024 -s 1 -d 0 -p tcp -e 1040 -c 3 -i 82 -a 3 -x {1.0 0.4 -1 ------- null}
r -t 0.318688 -s 0 -d 1 -p ack -e 40 -c 3 -i 63 -a 3 -x {0.4 1.0 22 ------- null}
+ -t 0.318688 -s 1 -d 0 -p tcp -e 1040 -c 3 -i 87 -a 3 -x {1.0 0.4 42 ------- null}
- -t 0.318688 -s 1 -d 0 -p tcp -e 1040 -c 3 -i 83 -a 3 -x {1.0 0.4 38 ------- null}
h -t 0.318688 -s 1 -d 0 -p tcp -e 1040 -c 3 -i 83 -a 3 -x {1.0 0.4 -1 ------- null}
r -t 0.320352 -s 0 -d 1 -p ack -e 40 -c 3 -i 64 -a 3 -x {0.4 1.0 23 ------- null}
+ -t 0.320352 -s 1 -d 0 -p tcp -e 1040 -c 3 -i 88 -a 3 -x {1.0 0.4 43 ------- null}
- -t 0.320352 -s 1 -d 0 -p tcp -e 1040 -c 3 -i 84 -a 3 -x {1.0 0.4 39 ------- null}
h -t 0.320352 -s 1 -d 0 -p tcp -e 1040 -c 3 -i 84 -a 3 -x {1.0 0.4 -1 ------- null}
r -t 0.322016 -s 0 -d 1 -p ack -e 40 -c 3 -i 65 -a 3 -x {0.4 1.0 24 ------- null}
+ -t 0.322016 -s 1 -d 0 -p tcp -e 1040 -c 3 -i 89 -a 3 -x {1.0 0.4 44 ------- null}
- -t 0.322016 -s 1 -d 0 -p tcp -e 1040 -c 3 -i 85 -a 3 -x {1.0 0.4 40 ------- null}
h -t 0.322016 -s 1 -d 0 -p tcp -e 1040 -c 3 -i 85 -a 3 -x {1.0 0.4 -1 ------- null}
r -t 0.323584 -s 2 -d 0 -p ack -e 40 -c 0 -i 66 -a 0 -x {2.1 0.1 3 ------- null}
+ -t 0.323584 -s 0 -d 2 -p tcp -e 1040 -c 0 -i 90 -a 0 -x {0.1 2.1 7 ------- null}
- -t 0.323584 -s 0 -d 2 -p tcp -e 1040 -c 0 -i 90 -a 0 -x {0.1 2.1 7 ------- null}
h -t 0.323584 -s 0 -d 2 -p tcp -e 1040 -c 0 -i 90 -a 0 -x {0.1 2.1 -1 ------- null}
+ -t 0.323584 -s 0 -d 2 -p tcp -e 1040 -c 0 -i 91 -a 0 -x {0.1 2.1 8 ------- null}
r -t 0.32368 -s 0 -d 1 -p ack -e 40 -c 3 -i 67 -a 3 -x {0.4 1.0 25 ------- null}
+ -t 0.32368 -s 1 -d 0 -p tcp -e 1040 -c 3 -i 92 -a 3 -x {1.0 0.4 45 ------- null}
- -t 0.32368 -s 1 -d 0 -p tcp -e 1040 -c 3 -i 86 -a 3 -x {1.0 0.4 41 ------- null}
h -t 0.32368 -s 1 -d 0 -p tcp -e 1040 -c 3 -i 86 -a 3 -x {1.0 0.4 -1 ------- null}
r -t 0.325248 -s 2 -d 0 -p ack -e 40 -c 0 -i 68 -a 0 -x {2.1 0.1 4 ------- null}
+ -t 0.325248 -s 0 -d 2 -p tcp -e 1040 -c 0 -i 93 -a 0 -x {0.1 2.1 9 ------- null}
+ -t 0.325248 -s 0 -d 2 -p tcp -e 1040 -c 0 -i 94 -a 0 -x {0.1 2.1 10 ------- null}
- -t 0.325248 -s 0 -d 2 -p tcp -e 1040 -c 0 -i 91 -a 0 -x {0.1 2.1 8 ------- null}
h -t 0.325248 -s 0 -d 2 -p tcp -e 1040 -c 0 -i 91 -a 0 -x {0.1 2.1 -1 ------- null}
r -t 0.325344 -s 0 -d 1 -p ack -e 40 -c 3 -i 69 -a 3 -x {0.4 1.0 26 ------- null}
+ -t 0.325344 -s 1 -d 0 -p tcp -e 1040 -c 3 -i 95 -a 3 -x {1.0 0.4 46 ------- null}
- -t 0.325344 -s 1 -d 0 -p tcp -e 1040 -c 3 -i 87 -a 3 -x {1.0 0.4 42 ------- null}
h -t 0.325344 -s 1 -d 0 -p tcp -e 1040 -c 3 -i 87 -a 3 -x {1.0 0.4 -1 ------- null}
r -t 0.326912 -s 2 -d 0 -p ack -e 40 -c 0 -i 70 -a 0 -x {2.1 0.1 5 ------- null}
+ -t 0.326912 -s 0 -d 2 -p tcp -e 1040 -c 0 -i 96 -a 0 -x {0.1 2.1 11 ------- null}
+ -t 0.326912 -s 0 -d 2 -p tcp -e 1040 -c 0 -i 97 -a 0 -x {0.1 2.1 12 ------- null}
- -t 0.326912 -s 0 -d 2 -p tcp -e 1040 -c 0 -i 93 -a 0 -x {0.1 2.1 9 ------- null}
h -t 0.326912 -s 0 -d 2 -p tcp -e 1040 -c 0 -i 93 -a 0 -x {0.1 2.1 -1 ------- null}
r -t 0.327008 -s 0 -d 1 -p ack -e 40 -c 3 -i 71 -a 3 -x {0.4 1.0 27 ------- null}
+ -t 0.327008 -s 1 -d 0 -p tcp -e 1040 -c 3 -i 98 -a 3 -x {1.0 0.4 47 ------- null}
- -t 0.327008 -s 1 -d 0 -p tcp -e 1040 -c 3 -i 88 -a 3 -x {1.0 0.4 43 ------- null}
h -t 0.327008 -s 1 -d 0 -p tcp -e 1040 -c 3 -i 88 -a 3 -x {1.0 0.4 -1 ------- null}