+ 0.1 1 0 tcp 40 ------- 3 1.0 0.4 0 0
- 0.1 1 0 tcp 40 ------- 3 1.0 0.4 0 0
r 0.120064 1 0 tcp 40 ------- 3 1.0 0.4 0 0
+ 0.120064 0 1 ack 40 ------- 3 0.4 1.0 0 1
- 0.120064 0 1 ack 40 ------- 3 0.4 1.0 0 1
r 0.140128 0 1 ack 40 ------- 3 0.4 1.0 0 1
+ 0.140128 1 0 tcp 1040 ------- 3 1.0 0.4 1 2
- 0.140128 1 0 tcp 1040 ------- 3 1.0 0.4 1 2
+ 0.140128 1 0 tcp 1040 ------- 3 1.0 0.4 2 3
- 0.141792 1 0 tcp 1040 ------- 3 1.0 0.4 2 3
r 0.161792 1 0 tcp 1040 ------- 3 1.0 0.4 1 2
+ 0.161792 0 1 ack 40 ------- 3 0.4 1.0 1 4
- 0.161792 0 1 ack 40 ------- 3 0.4 1.0 1 4
r 0.163456 1 0 tcp 1040 ------- 3 1.0 0.4 2 3
+ 0.163456 0 1 ack 40 ------- 3 0.4 1.0 2 5
- 0.163456 0 1 ack 40 ------- 3 0.4 1.0 2 5
r 0.181856 0 1 ack 40 ------- 3 0.4 1.0 1 4
+ 0.181856 1 0 tcp 1040 ------- 3 1.0 0.4 3 6
- 0.181856 1 0 tcp 1040 ------- 3 1.0 0.4 3 6
+ 0.181856 1 0 tcp 1040 ------- 3 1.0 0.4 4 7
r 0.18352 0 1 ack 40 ------- 3 0.4 1.0 2 5
+ 0.18352 1 0 tcp 1040 ------- 3 1.0 0.4 5 8
+ 0.18352 1 0 tcp 1040 ------- 3 1.0 0.4 6 9
- 0.18352 1 0 tcp 1040 ------- 3 1.0 0.4 4 7
- 0.185184 1 0 tcp 1040 ------- 3 1.0 0.4 5 8
- 0.186848 1 0 tcp 1040 ------- 3 1.0 0.4 6 9
+ 0.2 0 2 tcp 40 ------- 0 0.1 2.1 0 10
- 0.2 0 2 tcp 40 ------- 0 0.1 2.1 0 10
r 0.20352 1 0 tcp 1040 ------- 3 1.0 0.4 3 6
+ 0.20352 0 1 ack 40 ------- 3 0.4 1.0 3 11
- 0.20352 0 1 ack 40 ------- 3 0.4 1.0 3 11
r 0.205184 1 0 tcp 1040 ------- 3 1.0 0.4 4 7
+ 0.205184 0 1 ack 40 ------- 3 0.4 1.0 4 12
- 0.205184 0 1 ack 40 ------- 3 0.4 1.0 4 12
r 0.206848 1 0 tcp 1040 ------- 3 1.0 0.4 5 8
+ 0.206848 0 1 ack 40 ------- 3 0.4 1.0 5 13
- 0.206848 0 1 ack 40 ------- 3 0.4 1.0 5 13
r 0.208512 1 0 tcp 1040 ------- 3 1.0 0.4 6 9
+ 0.208512 0 1 ack 40 ------- 3 0.4 1.0 6 14
- 0.208512 0 1 ack 40 ------- 3 0.4 1.0 6 14
r 0.220064 0 2 tcp 40 ------- 0 0.1 2.1 0 10
+ 0.220064 2 0 ack 40 ------- 0 2.1 0.1 0 15
- 0.220064 2 0 ack 40 ------- 0 2.1 0.1 0 15
r 0.223584 0 1 ack 40 ------- 3 0.4 1.0 3 11
+ 0.223584 1 0 tcp 1040 ------- 3 1.0 0.4 7 16
- 0.223584 1 0 tcp 1040 ------- 3 1.0 0.4 7 16
+ 0.223584 1 0 tcp 1040 ------- 3 1.0 0.4 8 17
r 0.225248 0 1 ack 40 ------- 3 0.4 1.0 4 12
+ 0.225248 1 0 tcp 1040 ------- 3 1.0 0.4 9 18
+ 0.225248 1 0 tcp 1040 ------- 3 1.0 0.4 10 19
- 0.225248 1 0 tcp 1040 ------- 3 1.0 0.4 8 17
r 0.226912 0 1 ack 40 ------- 3 0.4 1.0 5 13
+ 0.226912 1 0 tcp 1040 ------- 3 1.0 0.4 11 20
+ 0.226912 1 0 tcp 1040 ------- 3 1.0 0.4 12 21
- 0.226912 1 0 tcp 1040 ------- 3 1.0 0.4 9 18
r 0.228576 0 1 ack 40 ------- 3 0.4 1.0 6 14
+ 0.228576 1 0 tcp 1040 ------- 3 1.0 0.4 13 22
+ 0.228576 1 0 tcp 1040 ------- 3 1.0 0.4 14 23
- 0.228576 1 0 tcp 1040 ------- 3 1.0 0.4 10 19
- 0.23024 1 0 tcp 1040 ------- 3 1.0 0.4 11 20
- 0.231904 1 0 tcp 1040 ------- 3 1.0 0.4 12 21
- 0.233568 1 0 tcp 1040 ------- 3 1.0 0.4 13 22
- 0.235232 1 0 tcp 1040 ------- 3 1.0 0.4 14 23
r 0.240128 2 0 ack 40 ------- 0 2.1 0.1 0 15
+ 0.240128 0 2 tcp 1040 ------- 0 0.1 2.1 1 24
- 0.240128 0 2 tcp 1040 ------- 0 0.1 2.1 1 24
+ 0.240128 0 2 tcp 1040 ------- 0 0.1 2.1 2 25
- 0.241792 0 2 tcp 1040 ------- 0 0.1 2.1 2 25
r 0.245248 1 0 tcp 1040 ------- 3 1.0 0.4 7 16
+ 0.245248 0 1 ack 40 ------- 3 0.4 1.0 7 26
- 0.245248 0 1 ack 40 ------- 3 0.4 1.0 7 26
r 0.246912 1 0 tcp 1040 ------- 3 1.0 0.4 8 17
+ 0.246912 0 1 ack 40 ------- 3 0.4 1.0 8 27
- 0.246912 0 1 ack 40 ------- 3 0.4 1.0 8 27
r 0.248576 1 0 tcp 1040 ------- 3 1.0 0.4 9 18
+ 0.248576 0 1 ack 40 ------- 3 0.4 1.0 9 28
- 0.248576 0 1 ack 40 ------- 3 0.4 1.0 9 28
r 0.25024 1 0 tcp 1040 ------- 3 1.0 0.4 10 19
+ 0.25024 0 1 ack 40 ------- 3 0.4 1.0 10 29
- 0.25024 0 1 ack 40 ------- 3 0.4 1.0 10 29
r 0.251904 1 0 tcp 1040 ------- 3 1.0 0.4 11 20
+ 0.251904 0 1 ack 40 ------- 3 0.4 1.0 11 30
- 0.251904 0 1 ack 40 ------- 3 0.4 1.0 11 30
r 0.253568 1 0 tcp 1040 ------- 3 1.0 0.4 12 21
+ 0.253568 0 1 ack 40 ------- 3 0.4 1.0 12 31
- 0.253568 0 1 ack 40 ------- 3 0.4 1.0 12 31
r 0.255232 1 0 tcp 1040 ------- 3 1.0 0.4 13 22
+ 0.255232 0 1 ack 40 ------- 3 0.4 1.0 13 32
- 0.255232 0 1 ack 40 ------- 3 0.4 1.0 13 32
r 0.256896 1 0 tcp 1040 ------- 3 1.0 0.4 14 23
+ 0.256896 0 1 ack 40 ------- 3 0.4 1.0 14 33
- 0.256896 0 1 ack 40 ------- 3 0.4 1.0 14 33
r 0.261792 0 2 tcp 1040 ------- 0 0.1 2.1 1 24
+ 0.261792 2 0 ack 40 ------- 0 2.1 0.1 1 34
- 0.261792 2 0 ack 40 ------- 0 2.1 0.1 1 34
r 0.263456 0 2 tcp 1040 ------- 0 0.1 2.1 2 25
+ 0.263456 2 0 ack 40 ------- 0 2.1 0.1 2 35
- 0.263456 2 0 ack 40 ------- 0 2.1 0.1 2 35
r 0.265312 0 1 ack 40 ------- 3 0.4 1.0 7 26
+ 0.265312 1 0 tcp 1040 ------- 3 1.0 0.4 15 36
- 0.265312 1 0 tcp 1040 ------- 3 1.0 0.4 15 36
+ 0.265312 1 0 tcp 1040 ------- 3 1.0 0.4 16 37
r 0.266976 0 1 ack 40 ------- 3 0.4 1.0 8 27
+ 0.266976 1 0 tcp 1040 ------- 3 1.0 0.4 17 38
+ 0.266976 1 0 tcp 1040 ------- 3 1.0 0.4 18 39
- 0.266976 1 0 tcp 1040 ------- 3 1.0 0.4 16 37
r 0.26864 0 1 ack 40 ------- 3 0.4 1.0 9 28
+ 0.26864 1 0 tcp 1040 ------- 3 1.0 0.4 19 40
+ 0.26864 1 0 tcp 1040 ------- 3 1.0 0.4 20 41
- 0.26864 1 0 tcp 1040 ------- 3 1.0 0.4 17 38
r 0.270304 0 1 ack 40 ------- 3 0.4 1.0 10 29
+ 0.270304 1 0 tcp 1040 ------- 3 1.0 0.4 21 42
+ 0.270304 1 0 tcp 1040 ------- 3 1.0 0.4 22 43
- 0.270304 1 0 tcp 1040 ------- 3 1.0 0.4 18 39
r 0.271968 0 1 ack 40 ------- 3 0.4 1.0 11 30
+ 0.271968 1 0 tcp 1040 ------- 3 1.0 0.4 23 44
+ 0.271968 1 0 tcp 1040 ------- 3 1.0 0.4 24 45
- 0.271968 1 0 tcp 1040 ------- 3 1.0 0.4 19 40
r 0.273632 0 1 ack 40 ------- 3 0.4 1.0 12 31
+ 0.273632 1 0 tcp 1040 ------- 3 1.0 0.4 25 46
+ 0.273632 1 0 tcp 1040 ------- 3 1.0 0.4 26 47
- 0.273632 1 0 tcp 1040 ------- 3 1.0 0.4 20 41
r 0.275296 0 1 ack 40 ------- 3 0.4 1.0 13 32
+ 0.275296 1 0 tcp 1040 ------- 3 1.0 0.4 27 48
+ 0.275296 1 0 tcp 1040 ------- 3 1.0 0.4 28 49
- 0.275296 1 0 tcp 1040 ------- 3 1.0 0.4 21 42
r 0.27696 0 1 ack 40 ------- 3 0.4 1.0 14 33
+ 0.27696 1 0 tcp 1040 ------- 3 1.0 0.4 29 50
+ 0.27696 1 0 tcp 1040 ------- 3 1.0 0.4 30 51
- 0.27696 1 0 tcp 1040 ------- 3 1.0 0.4 22 43
- 0.278624 1 0 tcp 1040 ------- 3 1.0 0.4 23 44
- 0.280288 1 0 tcp 1040 ------- 3 1.0 0.4 24 45
r 0.281856 2 0 ack 40 ------- 0 2.1 0.1 1 34
+ 0.281856 0 2 tcp 1040 ------- 0 0.1 2.1 3 52
- 0.281856 0 2 tcp 1040 ------- 0 0.1 2.1 3 52
+ 0.281856 0 2 tcp 1040 ------- 0 0.1 2.1 4 53
- 0.281952 1 0 tcp 1040 ------- 3 1.0 0.4 25 46
r 0.28352 2 0 ack 40 ------- 0 2.1 0.1 2 35
+ 0.28352 0 2 tcp 1040 ------- 0 0.1 2.1 5 54
+ 0.28352 0 2 tcp 1040 ------- 0 0.1 2.1 6 55
- 0.28352 0 2 tcp 1040 ------- 0 0.1 2.1 4 53
- 0.283616 1 0 tcp 1040 ------- 3 1.0 0.4 26 47
- 0.285184 0 2 tcp 1040 ------- 0 0.1 2.1 5 54
- 0.28528 1 0 tcp 1040 ------- 3 1.0 0.4 27 48
- 0.286848 0 2 tcp 1040 ------- 0 0.1 2.1 6 55
- 0.286944 1 0 tcp 1040 ------- 3 1.0 0.4 28 49
r 0.286976 1 0 tcp 1040 ------- 3 1.0 0.4 15 36
+ 0.286976 0 1 ack 40 ------- 3 0.4 1.0 15 56
- 0.286976 0 1 ack 40 ------- 3 0.4 1.0 15 56
- 0.288608 1 0 tcp 1040 ------- 3 1.0 0.4 29 50
r 0.28864 1 0 tcp 1040 ------- 3 1.0 0.4 16 37
+ 0.28864 0 1 ack 40 ------- 3 0.4 1.0 16 57
- 0.28864 0 1 ack 40 ------- 3 0.4 1.0 16 57
- 0.290272 1 0 tcp 1040 ------- 3 1.0 0.4 30 51
r 0.290304 1 0 tcp 1040 ------- 3 1.0 0.4 17 38
+ 0.290304 0 1 ack 40 ------- 3 0.4 1.0 17 58
- 0.290304 0 1 ack 40 ------- 3 0.4 1.0 17 58
r 0.291968 1 0 tcp 1040 ------- 3 1.0 0.4 18 39
+ 0.291968 0 1 ack 40 ------- 3 0.4 1.0 18 59
- 0.291968 0 1 ack 40 ------- 3 0.4 1.0 18 59
r 0.293632 1 0 tcp 1040 ------- 3 1.0 0.4 19 40
+ 0.293632 0 1 ack 40 ------- 3 0.4 1.0 19 60
- 0.293632 0 1 ack 40 ------- 3 0.4 1.0 19 60
r 0.295296 1 0 tcp 1040 ------- 3 1.0 0.4 20 41
+ 0.295296 0 1 ack 40 ------- 3 0.4 1.0 20 61
- 0.295296 0 1 ack 40 ------- 3 0.4 1.0 20 61
r 0.29696 1 0 tcp 1040 ------- 3 1.0 0.4 21 42
+ 0.29696 0 1 ack 40 ------- 3 0.4 1.0 21 62
- 0.29696 0 1 ack 40 ------- 3 0.4 1.0 21 62
r 0.298624 1 0 tcp 1040 ------- 3 1.0 0.4 22 43
+ 0.298624 0 1 ack 40 ------- 3 0.4 1.0 22 63
- 0.298624 0 1 ack 40 ------- 3 0.4 1.0 22 63
r 0.300288 1 0 tcp 1040 ------- 3 1.0 0.4 23 44
+ 0.300288 0 1 ack 40 ------- 3 0.4 1.0 23 64
- 0.300288 0 1 ack 40 ------- 3 0.4 1.0 23 64
r 0.301952 1 0 tcp 1040 ------- 3 1.0 0.4 24 45
+ 0.301952 0 1 ack 40 ------- 3 0.4 1.0 24 65
- 0.301952 0 1 ack 40 ------- 3 0.4 1.0 24 65
r 0.30352 0 2 tcp 1040 ------- 0 0.1 2.1 3 52
+ 0.30352 2 0 ack 40 ------- 0 2.1 0.1 3 66
- 0.30352 2 0 ack 40 ------- 0 2.1 0.1 3 66
r 0.303616 1 0 tcp 1040 ------- 3 1.0 0.4 25 46
+ 0.303616 0 1 ack 40 ------- 3 0.4 1.0 25 67
- 0.303616 0 1 ack 40 ------- 3 0.4 1.0 25 67
r 0.305184 0 2 tcp 1040 ------- 0 0.1 2.1 4 53
+ 0.305184 2 0 ack 40 ------- 0 2.1 0.1 4 68
- 0.305184 2 0 ack 40 ------- 0 2.1 0.1 4 68
r 0.30528 1 0 tcp 1040 ------- 3 1.0 0.4 26 47
+ 0.30528 0 1 ack 40 ------- 3 0.4 1.0 26 69
- 0.30528 0 1 ack 40 ------- 3 0.4 1.0 26 69
r 0.306848 0 2 tcp 1040 ------- 0 0.1 2.1 5 54
+ 0.306848 2 0 ack 40 ------- 0 2.1 0.1 5 70
- 0.306848 2 0 ack 40 ------- 0 2.1 0.1 5 70
r 0.306944 1 0 tcp 1040 ------- 3 1.0 0.4 27 48
+ 0.306944 0 1 ack 40 ------- 3 0.4 1.0 27 71
- 0.306944 0 1 ack 40 ------- 3 0.4 1.0 27 71
r 0.30704 0 1 ack 40 ------- 3 0.4 1.0 15 56
+ 0.30704 1 0 tcp 1040 ------- 3 1.0 0.4 31 72
- 0.30704 1 0 tcp 1040 ------- 3 1.0 0.4 31 72
+ 0.30704 1 0 tcp 1040 ------- 3 1.0 0.4 32 73
r 0.308512 0 2 tcp 1040 ------- 0 0.1 2.1 6 55
+ 0.308512 2 0 ack 40 ------- 0 2.1 0.1 6 74
- 0.308512 2 0 ack 40 ------- 0 2.1 0.1 6 74
r 0.308608 1 0 tcp 1040 ------- 3 1.0 0.4 28 49
+ 0.308608 0 1 ack 40 ------- 3 0.4 1.0 28 75
- 0.308608 0 1 ack 40 ------- 3 0.4 1.0 28 75
r 0.308704 0 1 ack 40 ------- 3 0.4 1.0 16 57
+ 0.308704 1 0 tcp 1040 ------- 3 1.0 0.4 33 76
+ 0.308704 1 0 tcp 1040 ------- 3 1.0 0.4 34 77
- 0.308704 1 0 tcp 1040 ------- 3 1.0 0.4 32 73
r 0.310272 1 0 tcp 1040 ------- 3 1.0 0.4 29 50
+ 0.310272 0 1 ack 40 ------- 3 0.4 1.0 29 78
- 0.310272 0 1 ack 40 ------- 3 0.4 1.0 29 78
r 0.310368 0 1 ack 40 ------- 3 0.4 1.0 17 58
+ 0.310368 1 0 tcp 1040 ------- 3 1.0 0.4 35 79
+ 0.310368 1 0 tcp 1040 ------- 3 1.0 0.4 36 80
- 0.310368 1 0 tcp 1040 ------- 3 1.0 0.4 33 76
r 0.311936 1 0 tcp 1040 ------- 3 1.0 0.4 30 51
+ 0.311936 0 1 ack 40 ------- 3 0.4 1.0 30 81
- 0.311936 0 1 ack 40 ------- 3 0.4 1.0 30 81
r 0.312032 0 1 ack 40 ------- 3 0.4 1.0 18 59
+ 0.312032 1 0 tcp 1040 ------- 3 1.0 0.4 37 82
+ 0.312032 1 0 tcp 1040 ------- 3 1.0 0.4 38 83
- 0.312032 1 0 tcp 1040 ------- 3 1.0 0.4 34 77
r 0.313696 0 1 ack 40 ------- 3 0.4 1.0 19 60
+ 0.313696 1 0 tcp 1040 ------- 3 1.0 0.4 39 84
- 0.313696 1 0 tcp 1040 ------- 3 1.0 0.4 35 79
r 0.31536 0 1 ack 40 ------- 3 0.4 1.0 20 61
+ 0.31536 1 0 tcp 1040 ------- 3 1.0 0.4 40 85
- 0.31536 1 0 tcp 1040 ------- 3 1.0 0.4 36 80
r 0.317024 0 1 ack 40 ------- 3 0.4 1.0 21 62
+ 0.317024 1 0 tcp 1040 ------- 3 1.0 0.4 41 86
- 0.317024 1 0 tcp 1040 ------- 3 1.0 0.4 37 82
r 0.318688 0 1 ack 40 ------- 3 0.4 1.0 22 63
+ 0.318688 1 0 tcp 1040 ------- 3 1.0 0.4 42 87
- 0.318688 1 0 tcp 1040 ------- 3 1.0 0.4 38 83
r 0.320352 0 1 ack 40 ------- 3 0.4 1.0 23 64
+ 0.320352 1 0 tcp 1040 ------- 3 1.0 0.4 43 88
- 0.320352 1 0 tcp 1040 ------- 3 1.0 0.4 39 84
r 0.322016 0 1 ack 40 ------- 3 0.4 1.0 24 65
+ 0.322016 1 0 tcp 1040 ------- 3 1.0 0.4 44 89
- 0.322016 1 0 tcp 1040 ------- 3 1.0 0.4 40 85
r 0.323584 2 0 ack 40 ------- 0 2.1 0.1 3 66
+ 0.323584 0 2 tcp 1040 ------- 0 0.1 2.1 7 90
- 0.323584 0 2 tcp 1040 ------- 0 0.1 2.1 7 90
+ 0.323584 0 2 tcp 1040 ------- 0 0.1 2.1 8 91
r 0.32368 0 1 ack 40 ------- 3 0.4 1.0 25 67
+ 0.32368 1 0 tcp 1040 ------- 3 1.0 0.4 45 92
- 0.32368 1 0 tcp 1040 ------- 3 1.0 0.4 41 86
r 0.325248 2 0 ack 40 ------- 0 2.1 0.1 4 68
+ 0.325248 0 2 tcp 1040 ------- 0 0.1 2.1 9 93
+ 0.325248 0 2 tcp 1040 ------- 0 0.1 2.1 10 94
- 0.325248 0 2 tcp 1040 ------- 0 0.1 2.1 8 91
r 0.325344 0 1 ack 40 ------- 3 0.4 1.0 26 69
+ 0.325344 1 0 tcp 1040 ------- 3 1.0 0.4 46 95
- 0.325344 1 0 tcp 1040 ------- 3 1.0 0.4 42 87
r 0.326912 2 0 ack 40 ------- 0 2.1 0.1 5 70
+ 0.326912 0 2 tcp 1040 ------- 0 0.1 2.1 11 96
+ 0.326912 0 2 tcp 1040 ------- 0 0.1 2.1 12 97
- 0.326912 0 2 tcp 1040 ------- 0 0.1 2.1 9 93
r 0.327008 0 1 ack 40 ------- 3 0.4 1.0 27 71
+ 0.327008 1 0 tcp 1040 ------- 3 1.0 0.4 47 98
- 0.327008 1 0 tcp 1040 ------- 3 1.0 0.4 43 88
r 0.328576 2 0 ack 40 ------- 0 2.1 0.1 6 74
+ 0.328576 0 2 tcp 1040 ------- 0 0.1 2.1 13 99
+ 0.328576 0 2 tcp 1040 ------- 0 0.1 2.1 14 100
- 0.328576 0 2 tcp 1040 ------- 0 0.1 2.1 10 94
r 0.328672 0 1 ack 40 ------- 3 0.4 1.0 28 75
+ 0.328672 1 0 tcp 1040 ------- 3 1.0 0.4 48 101
- 0.328672 1 0 tcp 1040 ------- 3 1.0 0.4 44 89
r 0.328704 1 0 tcp 1040 ------- 3 1.0 0.4 31 72
+ 0.328704 0 1 ack 40 ------- 3 0.4 1.0 31 102
- 0.328704 0 1 ack 40 ------- 3 0.4 1.0 31 102
- 0.33024 0 2 tcp 1040 ------- 0 0.1 2.1 11 96
r 0.330336 0 1 ack 40 ------- 3 0.4 1.0 29 78
+ 0.330336 1 0 tcp 1040 ------- 3 1.0 0.4 49 103
- 0.330336 1 0 tcp 1040 ------- 3 1.0 0.4 45 92
r 0.330368 1 0 tcp 1040 ------- 3 1.0 0.4 32 73
+ 0.330368 0 1 ack 40 ------- 3 0.4 1.0 32 104
- 0.330368 0 1 ack 40 ------- 3 0.4 1.0 32 104
- 0.331904 0 2 tcp 1040 ------- 0 0.1 2.1 12 97
r 0.332 0 1 ack 40 ------- 3 0.4 1.0 30 81
+ 0.332 1 0 tcp 1040 ------- 3 1.0 0.4 50 105
- 0.332 1 0 tcp 1040 ------- 3 1.0 0.4 46 95
r 0.332032 1 0 tcp 1040 ------- 3 1.0 0.4 33 76
+ 0.332032 0 1 ack 40 ------- 3 0.4 1.0 33 106
- 0.332032 0 1 ack 40 ------- 3 0.4 1.0 33 106
- 0.333568 0 2 tcp 1040 ------- 0 0.1 2.1 13 99
- 0.333664 1 0 tcp 1040 ------- 3 1.0 0.4 47 98
r 0.333696 1 0 tcp 1040 ------- 3 1.0 0.4 34 77
+ 0.333696 0 1 ack 40 ------- 3 0.4 1.0 34 107
- 0.333696 0 1 ack 40 ------- 3 0.4 1.0 34 107
- 0.335232 0 2 tcp 1040 ------- 0 0.1 2.1 14 100
- 0.335328 1 0 tcp 1040 ------- 3 1.0 0.4 48 101
r 0.33536 1 0 tcp 1040 ------- 3 1.0 0.4 35 79
+ 0.33536 0 1 ack 40 ------- 3 0.4 1.0 35 108
- 0.33536 0 1 ack 40 ------- 3 0.4 1.0 35 108
- 0.336992 1 0 tcp 1040 ------- 3 1.0 0.4 49 103
r 0.337024 1 0 tcp 1040 ------- 3 1.0 0.4 36 80
+ 0.337024 0 1 ack 40 ------- 3 0.4 1.0 36 109
- 0.337024 0 1 ack 40 ------- 3 0.4 1.0 36 109
- 0.338656 1 0 tcp 1040 ------- 3 1.0 0.4 50 105
r 0.338688 1 0 tcp 1040 ------- 3 1.0 0.4 37 82
+ 0.338688 0 1 ack 40 ------- 3 0.4 1.0 37 110
- 0.338688 0 1 ack 40 ------- 3 0.4 1.0 37 110
r 0.340352 1 0 tcp 1040 ------- 3 1.0 0.4 38 83
+ 0.340352 0 1 ack 40 ------- 3 0.4 1.0 38 111
- 0.340352 0 1 ack 40 ------- 3 0.4 1.0 38 111
r 0.342016 1 0 tcp 1040 ------- 3 1.0 0.4 39 84
+ 0.342016 0 1 ack 40 ------- 3 0.4 1.0 39 112
- 0.342016 0 1 ack 40 ------- 3 0.4 1.0 39 112
r 0.34368 1 0 tcp 1040 ------- 3 1.0 0.4 40 85
+ 0.34368 0 1 ack 40 ------- 3 0.4 1.0 40 113
- 0.34368 0 1 ack 40 ------- 3 0.4 1.0 40 113
r 0.345248 0 2 tcp 1040 ------- 0 0.1 2.1 7 90
+ 0.345248 2 0 ack 40 ------- 0 2.1 0.1 7 114
- 0.345248 2 0 ack 40 ------- 0 2.1 0.1 7 114
r 0.345344 1 0 tcp 1040 ------- 3 1.0 0.4 41 86
+ 0.345344 0 1 ack 40 ------- 3 0.4 1.0 41 115
- 0.345344 0 1 ack 40 ------- 3 0.4 1.0 41 115
r 0.346912 0 2 tcp 1040 ------- 0 0.1 2.1 8 91
+ 0.346912 2 0 ack 40 ------- 0 2.1 0.1 8 116
- 0.346912 2 0 ack 40 ------- 0 2.1 0.1 8 116
r 0.347008 1 0 tcp 1040 ------- 3 1.0 0.4 42 87
+ 0.347008 0 1 ack 40 ------- 3 0.4 1.0 42 117
- 0.347008 0 1 ack 40 ------- 3 0.4 1.0 42 117
r 0.348576 0 2 tcp 1040 ------- 0 0.1 2.1 9 93
+ 0.348576 2 0 ack 40 ------- 0 2.1 0.1 9 118
- 0.348576 2 0 ack 40 ------- 0 2.1 0.1 9 118
r 0.348672 1 0 tcp 1040 ------- 3 1.0 0.4 43 88
+ 0.348672 0 1 ack 40 ------- 3 0.4 1.0 43 119
- 0.348672 0 1 ack 40 ------- 3 0.4 1.0 43 119
r 0.348768 0 1 ack 40 ------- 3 0.4 1.0 31 102
+ 0.348768 1 0 tcp 1040 ------- 3 1.0 0.4 51 120
- 0.348768 1 0 tcp 1040 ------- 3 1.0 0.4 51 120
r 0.35024 0 2 tcp 1040 ------- 0 0.1 2.1 10 94
+ 0.35024 2 0 ack 40 ------- 0 2.1 0.1 10 121
- 0.35024 2 0 ack 40 ------- 0 2.1 0.1 10 121
r 0.350336 1 0 tcp 1040 ------- 3 1.0 0.4 44 89
+ 0.350336 0 1 ack 40 ------- 3 0.4 1.0 44 122
- 0.350336 0 1 ack 40 ------- 3 0.4 1.0 44 122
r 0.350432 0 1 ack 40 ------- 3 0.4 1.0 32 104
+ 0.350432 1 0 tcp 1040 ------- 3 1.0 0.4 52 123
- 0.350432 1 0 tcp 1040 ------- 3 1.0 0.4 52 123
r 0.351904 0 2 tcp 1040 ------- 0 0.1 2.1 11 96
+ 0.351904 2 0 ack 40 ------- 0 2.1 0.1 11 124
- 0.351904 2 0 ack 40 ------- 0 2.1 0.1 11 124
r 0.352 1 0 tcp 1040 ------- 3 1.0 0.4 45 92
+ 0.352 0 1 ack 40 ------- 3 0.4 1.0 45 125
- 0.352 0 1 ack 40 ------- 3 0.4 1.0 45 125
r 0.352096 0 1 ack 40 ------- 3 0.4 1.0 33 106
+ 0.352096 1 0 tcp 1040 ------- 3 1.0 0.4 53 126
- 0.352096 1 0 tcp 1040 ------- 3 1.0 0.4 53 126
r 0.353568 0 2 tcp 1040 ------- 0 0.1 2.1 12 97
+ 0.353568 2 0 ack 40 ------- 0 2.1 0.1 12 127
- 0.353568 2 0 ack 40 ------- 0 2.1 0.1 12 127
r 0.353664 1 0 tcp 1040 ------- 3 1.0 0.4 46 95
+ 0.353664 0 1 ack 40 ------- 3 0.4 1.0 46 128
- 0.353664 0 1 ack 40 ------- 3 0.4 1.0 46 128
r 0.35376 0 1 ack 40 ------- 3 0.4 1.0 34 107
+ 0.35376 1 0 tcp 1040 ------- 3 1.0 0.4 54 129
- 0.35376 1 0 tcp 1040 ------- 3 1.0 0.4 54 129
r 0.355232 0 2 tcp 1040 ------- 0 0.1 2.1 13 99
+ 0.355232 2 0 ack 40 ------- 0 2.1 0.1 13 130
- 0.355232 2 0 ack 40 ------- 0 2.1 0.1 13 130
r 0.355328 1 0 tcp 1040 ------- 3 1.0 0.4 47 98
+ 0.355328 0 1 ack 40 ------- 3 0.4 1.0 47 131
- 0.355328 0 1 ack 40 ------- 3 0.4 1.0 47 131
r 0.355424 0 1 ack 40 ------- 3 0.4 1.0 35 108
+ 0.355424 1 0 tcp 1040 ------- 3 1.0 0.4 55 132
- 0.355424 1 0 tcp 1040 ------- 3 1.0 0.4 55 132
r 0.356896 0 2 tcp 1040 ------- 0 0.1 2.1 14 100
+ 0.356896 2 0 ack 40 ------- 0 2.1 0.1 14 133
- 0.356896 2 0 ack 40 ------- 0 2.1 0.1 14 133
r 0.356992 1 0 tcp 1040 ------- 3 1.0 0.4 48 101
+ 0.356992 0 1 ack 40 ------- 3 0.4 1.0 48 134
- 0.356992 0 1 ack 40 ------- 3 0.4 1.0 48 134
r 0.357088 0 1 ack 40 ------- 3 0.4 1.0 36 109
+ 0.357088 1 0 tcp 1040 ------- 3 1.0 0.4 56 135
- 0.357088 1 0 tcp 1040 ------- 3 1.0 0.4 56 135
r 0.358656 1 0 tcp 1040 ------- 3 1.0 0.4 49 103
+ 0.358656 0 1 ack 40 ------- 3 0.4 1.0 49 136
- 0.358656 0 1 ack 40 ------- 3 0.4 1.0 49 136
r 0.358752 0 1 ack 40 ------- 3 0.4 1.0 37 110
+ 0.358752 1 0 tcp 1040 ------- 3 1.0 0.4 57 137
- 0.358752 1 0 tcp 1040 ------- 3 1.0 0.4 57 137
r 0.36032 1 0 tcp 1040 ------- 3 1.0 0.4 50 105
+ 0.36032 0 1 ack 40 ------- 3 0.4 1.0 50 138
- 0.36032 0 1 ack 40 ------- 3 0.4 1.0 50 138
r 0.360416 0 1 ack 40 ------- 3 0.4 1.0 38 111
+ 0.360416 1 0 tcp 1040 ------- 3 1.0 0.4 58 139
- 0.360416 1 0 tcp 1040 ------- 3 1.0 0.4 58 139
r 0.36208 0 1 ack 40 ------- 3 0.4 1.0 39 112
+ 0.36208 1 0 tcp 1040 ------- 3 1.0 0.4 59 140
- 0.36208 1 0 tcp 1040 ------- 3 1.0 0.4 59 140
r 0.363744 0 1 ack 40 ------- 3 0.4 1.0 40 113
+ 0.363744 1 0 tcp 1040 ------- 3 1.0 0.4 60 141
- 0.363744 1 0 tcp 1040 ------- 3 1.0 0.4 60 141
r 0.365312 2 0 ack 40 ------- 0 2.1 0.1 7 114
+ 0.365312 0 2 tcp 1040 ------- 0 0.1 2.1 15 142
- 0.365312 0 2 tcp 1040 ------- 0 0.1 2.1 15 142
+ 0.365312 0 2 tcp 1040 ------- 0 0.1 2.1 16 143
r 0.365408 0 1 ack 40 ------- 3 0.4 1.0 41 115
+ 0.365408 1 0 tcp 1040 ------- 3 1.0 0.4 61 144
- 0.365408 1 0 tcp 1040 ------- 3 1.0 0.4 61 144
r 0.366976 2 0 ack 40 ------- 0 2.1 0.1 8 116
+ 0.366976 0 2 tcp 1040 ------- 0 0.1 2.1 17 145
+ 0.366976 0 2 tcp 1040 ------- 0 0.1 2.1 18 146
- 0.366976 0 2 tcp 1040 ------- 0 0.1 2.1 16 143
r 0.367072 0 1 ack 40 ------- 3 0.4 1.0 42 117
+ 0.367072 1 0 tcp 1040 ------- 3 1.0 0.4 62 147
- 0.367072 1 0 tcp 1040 ------- 3 1.0 0.4 62 147
r 0.36864 2 0 ack 40 ------- 0 2.1 0.1 9 118
+ 0.36864 0 2 tcp 1040 ------- 0 0.1 2.1 19 148
+ 0.36864 0 2 tcp 1040 ------- 0 0.1 2.1 20 149
- 0.36864 0 2 tcp 1040 ------- 0 0.1 2.1 17 145
r 0.368736 0 1 ack 40 ------- 3 0.4 1.0 43 119
+ 0.368736 1 0 tcp 1040 ------- 3 1.0 0.4 63 150
- 0.368736 1 0 tcp 1040 ------- 3 1.0 0.4 63 150
r 0.370304 2 0 ack 40 ------- 0 2.1 0.1 10 121
+ 0.370304 0 2 tcp 1040 ------- 0 0.1 2.1 21 151
+ 0.370304 0 2 tcp 1040 ------- 0 0.1 2.1 22 152
- 0.370304 0 2 tcp 1040 ------- 0 0.1 2.1 18 146
r 0.3704 0 1 ack 40 ------- 3 0.4 1.0 44 122
+ 0.3704 1 0 tcp 1040 ------- 3 1.0 0.4 64 153
- 0.3704 1 0 tcp 1040 ------- 3 1.0 0.4 64 153
r 0.370432 1 0 tcp 1040 ------- 3 1.0 0.4 51 120
+ 0.370432 0 1 ack 40 ------- 3 0.4 1.0 51 154
- 0.370432 0 1 ack 40 ------- 3 0.4 1.0 51 154
r 0.371968 2 0 ack 40 ------- 0 2.1 0.1 11 124
+ 0.371968 0 2 tcp 1040 ------- 0 0.1 2.1 23 155
+ 0.371968 0 2 tcp 1040 ------- 0 0.1 2.1 24 156
- 0.371968 0 2 tcp 1040 ------- 0 0.1 2.1 19 148
r 0.372064 0 1 ack 40 ------- 3 0.4 1.0 45 125
+ 0.372064 1 0 tcp 1040 ------- 3 1.0 0.4 65 157
- 0.372064 1 0 tcp 1040 ------- 3 1.0 0.4 65 157
r 0.372096 1 0 tcp 1040 ------- 3 1.0 0.4 52 123
+ 0.372096 0 1 ack 40 ------- 3 0.4 1.0 52 158
- 0.372096 0 1 ack 40 ------- 3 0.4 1.0 52 158
r 0.373632 2 0 ack 40 ------- 0 2.1 0.1 12 127
+ 0.373632 0 2 tcp 1040 ------- 0 0.1 2.1 25 159
+ 0.373632 0 2 tcp 1040 ------- 0 0.1 2.1 26 160
- 0.373632 0 2 tcp 1040 ------- 0 0.1 2.1 20 149
r 0.373728 0 1 ack 40 ------- 3 0.4 1.0 46 128
+ 0.373728 1 0 tcp 1040 ------- 3 1.0 0.4 66 161
- 0.373728 1 0 tcp 1040 ------- 3 1.0 0.4 66 161
r 0.37376 1 0 tcp 1040 ------- 3 1.0 0.4 53 126
+ 0.37376 0 1 ack 40 ------- 3 0.4 1.0 53 162
- 0.37376 0 1 ack 40 ------- 3 0.4 1.0 53 162
r 0.375296 2 0 ack 40 ------- 0 2.1 0.1 13 130
+ 0.375296 0 2 tcp 1040 ------- 0 0.1 2.1 27 163
+ 0.375296 0 2 tcp 1040 ------- 0 0.1 2.1 28 164
- 0.375296 0 2 tcp 1040 ------- 0 0.1 2.1 21 151
r 0.375392 0 1 ack 40 ------- 3 0.4 1.0 47 131
+ 0.375392 1 0 tcp 1040 ------- 3 1.0 0.4 67 165
- 0.375392 1 0 tcp 1040 ------- 3 1.0 0.4 67 165
r 0.375424 1 0 tcp 1040 ------- 3 1.0 0.4 54 129
+ 0.375424 0 1 ack 40 ------- 3 0.4 1.0 54 166
- 0.375424 0 1 ack 40 ------- 3 0.4 1.0 54 166
r 0.37696 2 0 ack 40 ------- 0 2.1 0.1 14 133
+ 0.37696 0 2 tcp 1040 ------- 0 0.1 2.1 29 167
+ 0.37696 0 2 tcp 1040 ------- 0 0.1 2.1 30 168
- 0.37696 0 2 tcp 1040 ------- 0 0.1 2.1 22 152
r 0.377056 0 1 ack 40 ------- 3 0.4 1.0 48 134
+ 0.377056 1 0 tcp 1040 ------- 3 1.0 0.4 68 169
- 0.377056 1 0 tcp 1040 ------- 3 1.0 0.4 68 169
r 0.377088 1 0 tcp 1040 ------- 3 1.0 0.4 55 132
+ 0.377088 0 1 ack 40 ------- 3 0.4 1.0 55 170
- 0.377088 0 1 ack 40 ------- 3 0.4 1.0 55 170
- 0.378624 0 2 tcp 1040 ------- 0 0.1 2.1 23 155
r 0.37872 0 1 ack 40 ------- 3 0.4 1.0 49 136
+ 0.37872 1 0 tcp 1040 ------- 3 1.0 0.4 69 171
- 0.37872 1 0 tcp 1040 ------- 3 1.0 0.4 69 171
r 0.378752 1 0 tcp 1040 ------- 3 1.0 0.4 56 135
+ 0.378752 0 1 ack 40 ------- 3 0.4 1.0 56 172
- 0.378752 0 1 ack 40 ------- 3 0.4 1.0 56 172
- 0.380288 0 2 tcp 1040 ------- 0 0.1 2.1 24 156
r 0.380384 0 1 ack 40 ------- 3 0.4 1.0 50 138
+ 0.380384 1 0 tcp 1040 ------- 3 1.0 0.4 70 173
- 0.380384 1 0 tcp 1040 ------- 3 1.0 0.4 70 173
r 0.380416 1 0 tcp 1040 ------- 3 1.0 0.4 57 137
+ 0.380416 0 1 ack 40 ------- 3 0.4 1.0 57 174
- 0.380416 0 1 ack 40 ------- 3 0.4 1.0 57 174
- 0.381952 0 2 tcp 1040 ------- 0 0.1 2.1 25 159
r 0.38208 1 0 tcp 1040 ------- 3 1.0 0.4 58 139
+ 0.38208 0 1 ack 40 ------- 3 0.4 1.0 58 175
- 0.38208 0 1 ack 40 ------- 3 0.4 1.0 58 175
- 0.383616 0 2 tcp 1040 ------- 0 0.1 2.1 26 160
r 0.383744 1 0 tcp 1040 ------- 3 1.0 0.4 59 140
+ 0.383744 0 1 ack 40 ------- 3 0.4 1.0 59 176
- 0.383744 0 1 ack 40 ------- 3 0.4 1.0 59 176
- 0.38528 0 2 tcp 1040 ------- 0 0.1 2.1 27 163
r 0.385408 1 0 tcp 1040 ------- 3 1.0 0.4 60 141
+ 0.385408 0 1 ack 40 ------- 3 0.4 1.0 60 177
- 0.385408 0 1 ack 40 ------- 3 0.4 1.0 60 177
- 0.386944 0 2 tcp 1040 ------- 0 0.1 2.1 28 164
r 0.386976 0 2 tcp 1040 ------- 0 0.1 2.1 15 142
+ 0.386976 2 0 ack 40 ------- 0 2.1 0.1 15 178
- 0.386976 2 0 ack 40 ------- 0 2.1 0.1 15 178
r 0.387072 1 0 tcp 1040 ------- 3 1.0 0.4 61 144
+ 0.387072 0 1 ack 40 ------- 3 0.4 1.0 61 179
- 0.387072 0 1 ack 40 ------- 3 0.4 1.0 61 179
- 0.388608 0 2 tcp 1040 ------- 0 0.1 2.1 29 167
r 0.38864 0 2 tcp 1040 ------- 0 0.1 2.1 16 143
+ 0.38864 2 0 ack 40 ------- 0 2.1 0.1 16 180
- 0.38864 2 0 ack 40 ------- 0 2.1 0.1 16 180
r 0.388736 1 0 tcp 1040 ------- 3 1.0 0.4 62 147
+ 0.388736 0 1 ack 40 ------- 3 0.4 1.0 62 181
- 0.388736 0 1 ack 40 ------- 3 0.4 1.0 62 181
- 0.390272 0 2 tcp 1040 ------- 0 0.1 2.1 30 168
r 0.390304 0 2 tcp 1040 ------- 0 0.1 2.1 17 145
+ 0.390304 2 0 ack 40 ------- 0 2.1 0.1 17 182
- 0.390304 2 0 ack 40 ------- 0 2.1 0.1 17 182
r 0.3904 1 0 tcp 1040 ------- 3 1.0 0.4 63 150
+ 0.3904 0 1 ack 40 ------- 3 0.4 1.0 63 183
- 0.3904 0 1 ack 40 ------- 3 0.4 1.0 63 183
r 0.390496 0 1 ack 40 ------- 3 0.4 1.0 51 154
+ 0.390496 1 0 tcp 1040 ------- 3 1.0 0.4 71 184
- 0.390496 1 0 tcp 1040 ------- 3 1.0 0.4 71 184
r 0.391968 0 2 tcp 1040 ------- 0 0.1 2.1 18 146
+ 0.391968 2 0 ack 40 ------- 0 2.1 0.1 18 185
- 0.391968 2 0 ack 40 ------- 0 2.1 0.1 18 185
r 0.392064 1 0 tcp 1040 ------- 3 1.0 0.4 64 153
+ 0.392064 0 1 ack 40 ------- 3 0.4 1.0 64 186
- 0.392064 0 1 ack 40 ------- 3 0.4 1.0 64 186
r 0.39216 0 1 ack 40 ------- 3 0.4 1.0 52 158
+ 0.39216 1 0 tcp 1040 ------- 3 1.0 0.4 72 187
- 0.39216 1 0 tcp 1040 ------- 3 1.0 0.4 72 187
r 0.393632 0 2 tcp 1040 ------- 0 0.1 2.1 19 148
+ 0.393632 2 0 ack 40 ------- 0 2.1 0.1 19 188
- 0.393632 2 0 ack 40 ------- 0 2.1 0.1 19 188
r 0.393728 1 0 tcp 1040 ------- 3 1.0 0.4 65 157
+ 0.393728 0 1 ack 40 ------- 3 0.4 1.0 65 189
- 0.393728 0 1 ack 40 ------- 3 0.4 1.0 65 189
r 0.393824 0 1 ack 40 ------- 3 0.4 1.0 53 162
+ 0.393824 1 0 tcp 1040 ------- 3 1.0 0.4 73 190
- 0.393824 1 0 tcp 1040 ------- 3 1.0 0.4 73 190
r 0.395296 0 2 tcp 1040 ------- 0 0.1 2.1 20 149
+ 0.395296 2 0 ack 40 ------- 0 2.1 0.1 20 191
- 0.395296 2 0 ack 40 ------- 0 2.1 0.1 20 191
r 0.395392 1 0 tcp 1040 ------- 3 1.0 0.4 66 161
+ 0.395392 0 1 ack 40 ------- 3 0.4 1.0 66 192
- 0.395392 0 1 ack 40 ------- 3 0.4 1.0 66 192
r 0.395488 0 1 ack 40 ------- 3 0.4 1.0 54 166
+ 0.395488 1 0 tcp 1040 ------- 3 1.0 0.4 74 193
- 0.395488 1 0 tcp 1040 ------- 3 1.0 0.4 74 193
r 0.39696 0 2 tcp 1040 ------- 0 0.1 2.1 21 151
+ 0.39696 2 0 ack 40 ------- 0 2.1 0.1 21 194
- 0.39696 2 0 ack 40 ------- 0 2.1 0.1 21 194
r 0.397056 1 0 tcp 1040 ------- 3 1.0 0.4 67 165
+ 0.397056 0 1 ack 40 ------- 3 0.4 1.0 67 195
- 0.397056 0 1 ack 40 ------- 3 0.4 1.0 67 195
r 0.397152 0 1 ack 40 ------- 3 0.4 1.0 55 170
+ 0.397152 1 0 tcp 1040 ------- 3 1.0 0.4 75 196
- 0.397152 1 0 tcp 1040 ------- 3 1.0 0.4 75 196
r 0.398624 0 2 tcp 1040 ------- 0 0.1 2.1 22 152
+ 0.398624 2 0 ack 40 ------- 0 2.1 0.1 22 197
- 0.398624 2 0 ack 40 ------- 0 2.1 0.1 22 197
r 0.39872 1 0 tcp 1040 ------- 3 1.0 0.4 68 169
+ 0.39872 0 1 ack 40 ------- 3 0.4 1.0 68 198
- 0.39872 0 1 ack 40 ------- 3 0.4 1.0 68 198
r 0.398816 0 1 ack 40 ------- 3 0.4 1.0 56 172
+ 0.398816 1 0 tcp 1040 ------- 3 1.0 0.4 76 199
- 0.398816 1 0 tcp 1040 ------- 3 1.0 0.4 76 199
r 0.400288 0 2 tcp 1040 ------- 0 0.1 2.1 23 155
+ 0.400288 2 0 ack 40 ------- 0 2.1 0.1 23 200
- 0.400288 2 0 ack 40 ------- 0 2.1 0.1 23 200
r 0.400384 1 0 tcp 1040 ------- 3 1.0 0.4 69 171
+ 0.400384 0 1 ack 40 ------- 3 0.4 1.0 69 201
- 0.400384 0 1 ack 40 ------- 3 0.4 1.0 69 201
r 0.40048 0 1 ack 40 ------- 3 0.4 1.0 57 174
+ 0.40048 1 0 tcp 1040 ------- 3 1.0 0.4 77 202
- 0.40048 1 0 tcp 1040 ------- 3 1.0 0.4 77 202
r 0.401952 0 2 tcp 1040 ------- 0 0.1 2.1 24 156
+ 0.401952 2 0 ack 40 ------- 0 2.1 0.1 24 203
- 0.401952 2 0 ack 40 ------- 0 2.1 0.1 24 203
r 0.402048 1 0 tcp 1040 ------- 3 1.0 0.4 70 173
+ 0.402048 0 1 ack 40 ------- 3 0.4 1.0 70 204
- 0.402048 0 1 ack 40 ------- 3 0.4 1.0 70 204
r 0.402144 0 1 ack 40 ------- 3 0.4 1.0 58 175
+ 0.402144 1 0 tcp 1040 ------- 3 1.0 0.4 78 205
- 0.402144 1 0 tcp 1040 ------- 3 1.0 0.4 78 205
r 0.403616 0 2 tcp 1040 ------- 0 0.1 2.1 25 159
+ 0.403616 2 0 ack 40 ------- 0 2.1 0.1 25 206
- 0.403616 2 0 ack 40 ------- 0 2.1 0.1 25 206
r 0.403808 0 1 ack 40 ------- 3 0.4 1.0 59 176
+ 0.403808 1 0 tcp 1040 ------- 3 1.0 0.4 79 207
- 0.403808 1 0 tcp 1040 ------- 3 1.0 0.4 79 207
r 0.40528 0 2 tcp 1040 ------- 0 0.1 2.1 26 160
+ 0.40528 2 0 ack 40 ------- 0 2.1 0.1 26 208
- 0.40528 2 0 ack 40 ------- 0 2.1 0.1 26 208
r 0.405472 0 1 ack 40 ------- 3 0.4 1.0 60 177
+ 0.405472 1 0 tcp 1040 ------- 3 1.0 0.4 80 209
- 0.405472 1 0 tcp 1040 ------- 3 1.0 0.4 80 209
r 0.406944 0 2 tcp 1040 ------- 0 0.1 2.1 27 163
+ 0.406944 2 0 ack 40 ------- 0 2.1 0.1 27 210
- 0.406944 2 0 ack 40 ------- 0 2.1 0.1 27 210
r 0.40704 2 0 ack 40 ------- 0 2.1 0.1 15 178
+ 0.40704 0 2 tcp 1040 ------- 0 0.1 2.1 31 211
- 0.40704 0 2 tcp 1040 ------- 0 0.1 2.1 31 211
+ 0.40704 0 2 tcp 1040 ------- 0 0.1 2.1 32 212
r 0.407136 0 1 ack 40 ------- 3 0.4 1.0 61 179
+ 0.407136 1 0 tcp 1040 ------- 3 1.0 0.4 81 213
- 0.407136 1 0 tcp 1040 ------- 3 1.0 0.4 81 213
r 0.408608 0 2 tcp 1040 ------- 0 0.1 2.1 28 164
+ 0.408608 2 0 ack 40 ------- 0 2.1 0.1 28 214
- 0.408608 2 0 ack 40 ------- 0 2.1 0.1 28 214
r 0.408704 2 0 ack 40 ------- 0 2.1 0.1 16 180
+ 0.408704 0 2 tcp 1040 ------- 0 0.1 2.1 33 215
+ 0.408704 0 2 tcp 1040 ------- 0 0.1 2.1 34 216
- 0.408704 0 2 tcp 1040 ------- 0 0.1 2.1 32 212
r 0.4088 0 1 ack 40 ------- 3 0.4 1.0 62 181
+ 0.4088 1 0 tcp 1040 ------- 3 1.0 0.4 82 217
- 0.4088 1 0 tcp 1040 ------- 3 1.0 0.4 82 217
r 0.410272 0 2 tcp 1040 ------- 0 0.1 2.1 29 167
+ 0.410272 2 0 ack 40 ------- 0 2.1 0.1 29 218
- 0.410272 2 0 ack 40 ------- 0 2.1 0.1 29 218
r 0.410368 2 0 ack 40 ------- 0 2.1 0.1 17 182
+ 0.410368 0 2 tcp 1040 ------- 0 0.1 2.1 35 219
+ 0.410368 0 2 tcp 1040 ------- 0 0.1 2.1 36 220
- 0.410368 0 2 tcp 1040 ------- 0 0.1 2.1 33 215
r 0.410464 0 1 ack 40 ------- 3 0.4 1.0 63 183
+ 0.410464 1 0 tcp 1040 ------- 3 1.0 0.4 83 221
- 0.410464 1 0 tcp 1040 ------- 3 1.0 0.4 83 221
r 0.411936 0 2 tcp 1040 ------- 0 0.1 2.1 30 168
+ 0.411936 2 0 ack 40 ------- 0 2.1 0.1 30 222
- 0.411936 2 0 ack 40 ------- 0 2.1 0.1 30 222
r 0.412032 2 0 ack 40 ------- 0 2.1 0.1 18 185
+ 0.412032 0 2 tcp 1040 ------- 0 0.1 2.1 37 223
+ 0.412032 0 2 tcp 1040 ------- 0 0.1 2.1 38 224
- 0.412032 0 2 tcp 1040 ------- 0 0.1 2.1 34 216
r 0.412128 0 1 ack 40 ------- 3 0.4 1.0 64 186
+ 0.412128 1 0 tcp 1040 ------- 3 1.0 0.4 84 225
- 0.412128 1 0 tcp 1040 ------- 3 1.0 0.4 84 225
r 0.41216 1 0 tcp 1040 ------- 3 1.0 0.4 71 184
+ 0.41216 0 1 ack 40 ------- 3 0.4 1.0 71 226