+ 0.2 0 5 tcp 40 ------- 2 0.0 5.0 0 0
- 0.2 0 5 tcp 40 ------- 2 0.0 5.0 0 0
+ 0.2 1 5 tcp 40 ------- 3 1.0 5.1 0 1
- 0.2 1 5 tcp 40 ------- 3 1.0 5.1 0 1
+ 0.2 2 5 tcp 40 ------- 4 2.0 5.2 0 2
- 0.2 2 5 tcp 40 ------- 4 2.0 5.2 0 2
+ 0.2 3 5 tcp 40 ------- 5 3.0 5.3 0 3
- 0.2 3 5 tcp 40 ------- 5 3.0 5.3 0 3
+ 0.2 4 5 tcp 40 ------- 6 4.0 5.4 0 4
- 0.2 4 5 tcp 40 ------- 6 4.0 5.4 0 4
r 0.220064 0 5 tcp 40 ------- 2 0.0 5.0 0 0
+ 0.220064 5 0 ack 40 ------- 2 5.0 0.0 0 5
- 0.220064 5 0 ack 40 ------- 2 5.0 0.0 0 5
r 0.220064 1 5 tcp 40 ------- 3 1.0 5.1 0 1
+ 0.220064 5 1 ack 40 ------- 3 5.1 1.0 0 6
- 0.220064 5 1 ack 40 ------- 3 5.1 1.0 0 6
r 0.220064 2 5 tcp 40 ------- 4 2.0 5.2 0 2
+ 0.220064 5 2 ack 40 ------- 4 5.2 2.0 0 7
- 0.220064 5 2 ack 40 ------- 4 5.2 2.0 0 7
r 0.220064 3 5 tcp 40 ------- 5 3.0 5.3 0 3
+ 0.220064 5 3 ack 40 ------- 5 5.3 3.0 0 8
- 0.220064 5 3 ack 40 ------- 5 5.3 3.0 0 8
r 0.220064 4 5 tcp 40 ------- 6 4.0 5.4 0 4
+ 0.220064 5 4 ack 40 ------- 6 5.4 4.0 0 9
- 0.220064 5 4 ack 40 ------- 6 5.4 4.0 0 9
r 0.240128 5 0 ack 40 ------- 2 5.0 0.0 0 5
+ 0.240128 0 5 tcp 1040 ------- 2 0.0 5.0 1 10
- 0.240128 0 5 tcp 1040 ------- 2 0.0 5.0 1 10
+ 0.240128 0 5 tcp 1040 ------- 2 0.0 5.0 2 11
r 0.240128 5 1 ack 40 ------- 3 5.1 1.0 0 6
+ 0.240128 1 5 tcp 1040 ------- 3 1.0 5.1 1 12
- 0.240128 1 5 tcp 1040 ------- 3 1.0 5.1 1 12
+ 0.240128 1 5 tcp 1040 ------- 3 1.0 5.1 2 13
r 0.240128 5 2 ack 40 ------- 4 5.2 2.0 0 7
+ 0.240128 2 5 tcp 1040 ------- 4 2.0 5.2 1 14
- 0.240128 2 5 tcp 1040 ------- 4 2.0 5.2 1 14
+ 0.240128 2 5 tcp 1040 ------- 4 2.0 5.2 2 15
r 0.240128 5 3 ack 40 ------- 5 5.3 3.0 0 8
+ 0.240128 3 5 tcp 1040 ------- 5 3.0 5.3 1 16
- 0.240128 3 5 tcp 1040 ------- 5 3.0 5.3 1 16
+ 0.240128 3 5 tcp 1040 ------- 5 3.0 5.3 2 17
r 0.240128 5 4 ack 40 ------- 6 5.4 4.0 0 9
+ 0.240128 4 5 tcp 1040 ------- 6 4.0 5.4 1 18
- 0.240128 4 5 tcp 1040 ------- 6 4.0 5.4 1 18
+ 0.240128 4 5 tcp 1040 ------- 6 4.0 5.4 2 19
- 0.241792 0 5 tcp 1040 ------- 2 0.0 5.0 2 11
- 0.241792 1 5 tcp 1040 ------- 3 1.0 5.1 2 13
- 0.241792 2 5 tcp 1040 ------- 4 2.0 5.2 2 15
- 0.241792 3 5 tcp 1040 ------- 5 3.0 5.3 2 17
- 0.241792 4 5 tcp 1040 ------- 6 4.0 5.4 2 19
r 0.261792 0 5 tcp 1040 ------- 2 0.0 5.0 1 10
+ 0.261792 5 0 ack 40 ------- 2 5.0 0.0 1 20
- 0.261792 5 0 ack 40 ------- 2 5.0 0.0 1 20
r 0.261792 1 5 tcp 1040 ------- 3 1.0 5.1 1 12
+ 0.261792 5 1 ack 40 ------- 3 5.1 1.0 1 21
- 0.261792 5 1 ack 40 ------- 3 5.1 1.0 1 21
r 0.261792 2 5 tcp 1040 ------- 4 2.0 5.2 1 14
+ 0.261792 5 2 ack 40 ------- 4 5.2 2.0 1 22
- 0.261792 5 2 ack 40 ------- 4 5.2 2.0 1 22
r 0.261792 3 5 tcp 1040 ------- 5 3.0 5.3 1 16
+ 0.261792 5 3 ack 40 ------- 5 5.3 3.0 1 23
- 0.261792 5 3 ack 40 ------- 5 5.3 3.0 1 23
r 0.261792 4 5 tcp 1040 ------- 6 4.0 5.4 1 18
+ 0.261792 5 4 ack 40 ------- 6 5.4 4.0 1 24
- 0.261792 5 4 ack 40 ------- 6 5.4 4.0 1 24
r 0.263456 0 5 tcp 1040 ------- 2 0.0 5.0 2 11
+ 0.263456 5 0 ack 40 ------- 2 5.0 0.0 2 25
- 0.263456 5 0 ack 40 ------- 2 5.0 0.0 2 25
r 0.263456 1 5 tcp 1040 ------- 3 1.0 5.1 2 13
+ 0.263456 5 1 ack 40 ------- 3 5.1 1.0 2 26
- 0.263456 5 1 ack 40 ------- 3 5.1 1.0 2 26
r 0.263456 2 5 tcp 1040 ------- 4 2.0 5.2 2 15
+ 0.263456 5 2 ack 40 ------- 4 5.2 2.0 2 27
- 0.263456 5 2 ack 40 ------- 4 5.2 2.0 2 27
r 0.263456 3 5 tcp 1040 ------- 5 3.0 5.3 2 17
+ 0.263456 5 3 ack 40 ------- 5 5.3 3.0 2 28
- 0.263456 5 3 ack 40 ------- 5 5.3 3.0 2 28
r 0.263456 4 5 tcp 1040 ------- 6 4.0 5.4 2 19
+ 0.263456 5 4 ack 40 ------- 6 5.4 4.0 2 29
- 0.263456 5 4 ack 40 ------- 6 5.4 4.0 2 29
r 0.281856 5 0 ack 40 ------- 2 5.0 0.0 1 20
+ 0.281856 0 5 tcp 1040 ------- 2 0.0 5.0 3 30
- 0.281856 0 5 tcp 1040 ------- 2 0.0 5.0 3 30
+ 0.281856 0 5 tcp 1040 ------- 2 0.0 5.0 4 31
r 0.281856 5 1 ack 40 ------- 3 5.1 1.0 1 21
+ 0.281856 1 5 tcp 1040 ------- 3 1.0 5.1 3 32
- 0.281856 1 5 tcp 1040 ------- 3 1.0 5.1 3 32
+ 0.281856 1 5 tcp 1040 ------- 3 1.0 5.1 4 33
r 0.281856 5 2 ack 40 ------- 4 5.2 2.0 1 22
+ 0.281856 2 5 tcp 1040 ------- 4 2.0 5.2 3 34
- 0.281856 2 5 tcp 1040 ------- 4 2.0 5.2 3 34
+ 0.281856 2 5 tcp 1040 ------- 4 2.0 5.2 4 35
r 0.281856 5 3 ack 40 ------- 5 5.3 3.0 1 23
+ 0.281856 3 5 tcp 1040 ------- 5 3.0 5.3 3 36
- 0.281856 3 5 tcp 1040 ------- 5 3.0 5.3 3 36
+ 0.281856 3 5 tcp 1040 ------- 5 3.0 5.3 4 37
r 0.281856 5 4 ack 40 ------- 6 5.4 4.0 1 24
+ 0.281856 4 5 tcp 1040 ------- 6 4.0 5.4 3 38
- 0.281856 4 5 tcp 1040 ------- 6 4.0 5.4 3 38
+ 0.281856 4 5 tcp 1040 ------- 6 4.0 5.4 4 39
r 0.28352 5 0 ack 40 ------- 2 5.0 0.0 2 25
+ 0.28352 0 5 tcp 1040 ------- 2 0.0 5.0 5 40
+ 0.28352 0 5 tcp 1040 ------- 2 0.0 5.0 6 41
r 0.28352 5 1 ack 40 ------- 3 5.1 1.0 2 26
+ 0.28352 1 5 tcp 1040 ------- 3 1.0 5.1 5 42
+ 0.28352 1 5 tcp 1040 ------- 3 1.0 5.1 6 43
r 0.28352 5 2 ack 40 ------- 4 5.2 2.0 2 27
+ 0.28352 2 5 tcp 1040 ------- 4 2.0 5.2 5 44
+ 0.28352 2 5 tcp 1040 ------- 4 2.0 5.2 6 45
r 0.28352 5 3 ack 40 ------- 5 5.3 3.0 2 28
+ 0.28352 3 5 tcp 1040 ------- 5 3.0 5.3 5 46
+ 0.28352 3 5 tcp 1040 ------- 5 3.0 5.3 6 47
r 0.28352 5 4 ack 40 ------- 6 5.4 4.0 2 29
+ 0.28352 4 5 tcp 1040 ------- 6 4.0 5.4 5 48
+ 0.28352 4 5 tcp 1040 ------- 6 4.0 5.4 6 49
- 0.28352 0 5 tcp 1040 ------- 2 0.0 5.0 4 31
- 0.28352 1 5 tcp 1040 ------- 3 1.0 5.1 4 33
- 0.28352 2 5 tcp 1040 ------- 4 2.0 5.2 4 35
- 0.28352 3 5 tcp 1040 ------- 5 3.0 5.3 4 37
- 0.28352 4 5 tcp 1040 ------- 6 4.0 5.4 4 39
- 0.285184 0 5 tcp 1040 ------- 2 0.0 5.0 5 40
- 0.285184 1 5 tcp 1040 ------- 3 1.0 5.1 5 42
- 0.285184 2 5 tcp 1040 ------- 4 2.0 5.2 5 44
- 0.285184 3 5 tcp 1040 ------- 5 3.0 5.3 5 46
- 0.285184 4 5 tcp 1040 ------- 6 4.0 5.4 5 48
- 0.286848 0 5 tcp 1040 ------- 2 0.0 5.0 6 41
- 0.286848 1 5 tcp 1040 ------- 3 1.0 5.1 6 43
- 0.286848 2 5 tcp 1040 ------- 4 2.0 5.2 6 45
- 0.286848 3 5 tcp 1040 ------- 5 3.0 5.3 6 47
- 0.286848 4 5 tcp 1040 ------- 6 4.0 5.4 6 49
r 0.30352 0 5 tcp 1040 ------- 2 0.0 5.0 3 30
+ 0.30352 5 0 ack 40 ------- 2 5.0 0.0 3 50
- 0.30352 5 0 ack 40 ------- 2 5.0 0.0 3 50
r 0.30352 1 5 tcp 1040 ------- 3 1.0 5.1 3 32
+ 0.30352 5 1 ack 40 ------- 3 5.1 1.0 3 51
- 0.30352 5 1 ack 40 ------- 3 5.1 1.0 3 51
r 0.30352 2 5 tcp 1040 ------- 4 2.0 5.2 3 34
+ 0.30352 5 2 ack 40 ------- 4 5.2 2.0 3 52
- 0.30352 5 2 ack 40 ------- 4 5.2 2.0 3 52
r 0.30352 3 5 tcp 1040 ------- 5 3.0 5.3 3 36
+ 0.30352 5 3 ack 40 ------- 5 5.3 3.0 3 53
- 0.30352 5 3 ack 40 ------- 5 5.3 3.0 3 53
r 0.30352 4 5 tcp 1040 ------- 6 4.0 5.4 3 38
+ 0.30352 5 4 ack 40 ------- 6 5.4 4.0 3 54
- 0.30352 5 4 ack 40 ------- 6 5.4 4.0 3 54
r 0.305184 0 5 tcp 1040 ------- 2 0.0 5.0 4 31
+ 0.305184 5 0 ack 40 ------- 2 5.0 0.0 4 55
- 0.305184 5 0 ack 40 ------- 2 5.0 0.0 4 55
r 0.305184 1 5 tcp 1040 ------- 3 1.0 5.1 4 33
+ 0.305184 5 1 ack 40 ------- 3 5.1 1.0 4 56
- 0.305184 5 1 ack 40 ------- 3 5.1 1.0 4 56
r 0.305184 2 5 tcp 1040 ------- 4 2.0 5.2 4 35
+ 0.305184 5 2 ack 40 ------- 4 5.2 2.0 4 57
- 0.305184 5 2 ack 40 ------- 4 5.2 2.0 4 57
r 0.305184 3 5 tcp 1040 ------- 5 3.0 5.3 4 37
+ 0.305184 5 3 ack 40 ------- 5 5.3 3.0 4 58
- 0.305184 5 3 ack 40 ------- 5 5.3 3.0 4 58
r 0.305184 4 5 tcp 1040 ------- 6 4.0 5.4 4 39
+ 0.305184 5 4 ack 40 ------- 6 5.4 4.0 4 59
- 0.305184 5 4 ack 40 ------- 6 5.4 4.0 4 59
r 0.306848 0 5 tcp 1040 ------- 2 0.0 5.0 5 40
+ 0.306848 5 0 ack 40 ------- 2 5.0 0.0 5 60
- 0.306848 5 0 ack 40 ------- 2 5.0 0.0 5 60
r 0.306848 1 5 tcp 1040 ------- 3 1.0 5.1 5 42
+ 0.306848 5 1 ack 40 ------- 3 5.1 1.0 5 61
- 0.306848 5 1 ack 40 ------- 3 5.1 1.0 5 61
r 0.306848 2 5 tcp 1040 ------- 4 2.0 5.2 5 44
+ 0.306848 5 2 ack 40 ------- 4 5.2 2.0 5 62
- 0.306848 5 2 ack 40 ------- 4 5.2 2.0 5 62
r 0.306848 3 5 tcp 1040 ------- 5 3.0 5.3 5 46
+ 0.306848 5 3 ack 40 ------- 5 5.3 3.0 5 63
- 0.306848 5 3 ack 40 ------- 5 5.3 3.0 5 63
r 0.306848 4 5 tcp 1040 ------- 6 4.0 5.4 5 48
+ 0.306848 5 4 ack 40 ------- 6 5.4 4.0 5 64
- 0.306848 5 4 ack 40 ------- 6 5.4 4.0 5 64
r 0.308512 0 5 tcp 1040 ------- 2 0.0 5.0 6 41
+ 0.308512 5 0 ack 40 ------- 2 5.0 0.0 6 65
- 0.308512 5 0 ack 40 ------- 2 5.0 0.0 6 65
r 0.308512 1 5 tcp 1040 ------- 3 1.0 5.1 6 43
+ 0.308512 5 1 ack 40 ------- 3 5.1 1.0 6 66
- 0.308512 5 1 ack 40 ------- 3 5.1 1.0 6 66
r 0.308512 2 5 tcp 1040 ------- 4 2.0 5.2 6 45
+ 0.308512 5 2 ack 40 ------- 4 5.2 2.0 6 67
- 0.308512 5 2 ack 40 ------- 4 5.2 2.0 6 67
r 0.308512 3 5 tcp 1040 ------- 5 3.0 5.3 6 47
+ 0.308512 5 3 ack 40 ------- 5 5.3 3.0 6 68
- 0.308512 5 3 ack 40 ------- 5 5.3 3.0 6 68
r 0.308512 4 5 tcp 1040 ------- 6 4.0 5.4 6 49
+ 0.308512 5 4 ack 40 ------- 6 5.4 4.0 6 69
- 0.308512 5 4 ack 40 ------- 6 5.4 4.0 6 69
r 0.323584 5 0 ack 40 ------- 2 5.0 0.0 3 50
+ 0.323584 0 5 tcp 1040 ------- 2 0.0 5.0 7 70
- 0.323584 0 5 tcp 1040 ------- 2 0.0 5.0 7 70
+ 0.323584 0 5 tcp 1040 ------- 2 0.0 5.0 8 71
r 0.323584 5 1 ack 40 ------- 3 5.1 1.0 3 51
+ 0.323584 1 5 tcp 1040 ------- 3 1.0 5.1 7 72
- 0.323584 1 5 tcp 1040 ------- 3 1.0 5.1 7 72
+ 0.323584 1 5 tcp 1040 ------- 3 1.0 5.1 8 73
r 0.323584 5 2 ack 40 ------- 4 5.2 2.0 3 52
+ 0.323584 2 5 tcp 1040 ------- 4 2.0 5.2 7 74
- 0.323584 2 5 tcp 1040 ------- 4 2.0 5.2 7 74
+ 0.323584 2 5 tcp 1040 ------- 4 2.0 5.2 8 75
r 0.323584 5 3 ack 40 ------- 5 5.3 3.0 3 53
+ 0.323584 3 5 tcp 1040 ------- 5 3.0 5.3 7 76
- 0.323584 3 5 tcp 1040 ------- 5 3.0 5.3 7 76
+ 0.323584 3 5 tcp 1040 ------- 5 3.0 5.3 8 77
r 0.323584 5 4 ack 40 ------- 6 5.4 4.0 3 54
+ 0.323584 4 5 tcp 1040 ------- 6 4.0 5.4 7 78
- 0.323584 4 5 tcp 1040 ------- 6 4.0 5.4 7 78
+ 0.323584 4 5 tcp 1040 ------- 6 4.0 5.4 8 79
r 0.325248 5 0 ack 40 ------- 2 5.0 0.0 4 55
+ 0.325248 0 5 tcp 1040 ------- 2 0.0 5.0 9 80
+ 0.325248 0 5 tcp 1040 ------- 2 0.0 5.0 10 81
r 0.325248 5 1 ack 40 ------- 3 5.1 1.0 4 56
+ 0.325248 1 5 tcp 1040 ------- 3 1.0 5.1 9 82
+ 0.325248 1 5 tcp 1040 ------- 3 1.0 5.1 10 83
r 0.325248 5 2 ack 40 ------- 4 5.2 2.0 4 57
+ 0.325248 2 5 tcp 1040 ------- 4 2.0 5.2 9 84
+ 0.325248 2 5 tcp 1040 ------- 4 2.0 5.2 10 85
r 0.325248 5 3 ack 40 ------- 5 5.3 3.0 4 58
+ 0.325248 3 5 tcp 1040 ------- 5 3.0 5.3 9 86
+ 0.325248 3 5 tcp 1040 ------- 5 3.0 5.3 10 87
r 0.325248 5 4 ack 40 ------- 6 5.4 4.0 4 59
+ 0.325248 4 5 tcp 1040 ------- 6 4.0 5.4 9 88
+ 0.325248 4 5 tcp 1040 ------- 6 4.0 5.4 10 89
- 0.325248 0 5 tcp 1040 ------- 2 0.0 5.0 8 71
- 0.325248 1 5 tcp 1040 ------- 3 1.0 5.1 8 73
- 0.325248 2 5 tcp 1040 ------- 4 2.0 5.2 8 75
- 0.325248 3 5 tcp 1040 ------- 5 3.0 5.3 8 77
- 0.325248 4 5 tcp 1040 ------- 6 4.0 5.4 8 79
r 0.326912 5 0 ack 40 ------- 2 5.0 0.0 5 60
+ 0.326912 0 5 tcp 1040 ------- 2 0.0 5.0 11 90
+ 0.326912 0 5 tcp 1040 ------- 2 0.0 5.0 12 91
r 0.326912 5 1 ack 40 ------- 3 5.1 1.0 5 61
+ 0.326912 1 5 tcp 1040 ------- 3 1.0 5.1 11 92
+ 0.326912 1 5 tcp 1040 ------- 3 1.0 5.1 12 93
r 0.326912 5 2 ack 40 ------- 4 5.2 2.0 5 62
+ 0.326912 2 5 tcp 1040 ------- 4 2.0 5.2 11 94
+ 0.326912 2 5 tcp 1040 ------- 4 2.0 5.2 12 95
r 0.326912 5 3 ack 40 ------- 5 5.3 3.0 5 63
+ 0.326912 3 5 tcp 1040 ------- 5 3.0 5.3 11 96
+ 0.326912 3 5 tcp 1040 ------- 5 3.0 5.3 12 97
r 0.326912 5 4 ack 40 ------- 6 5.4 4.0 5 64
+ 0.326912 4 5 tcp 1040 ------- 6 4.0 5.4 11 98
+ 0.326912 4 5 tcp 1040 ------- 6 4.0 5.4 12 99
- 0.326912 0 5 tcp 1040 ------- 2 0.0 5.0 9 80
- 0.326912 1 5 tcp 1040 ------- 3 1.0 5.1 9 82
- 0.326912 2 5 tcp 1040 ------- 4 2.0 5.2 9 84
- 0.326912 3 5 tcp 1040 ------- 5 3.0 5.3 9 86
- 0.326912 4 5 tcp 1040 ------- 6 4.0 5.4 9 88
r 0.328576 5 0 ack 40 ------- 2 5.0 0.0 6 65
+ 0.328576 0 5 tcp 1040 ------- 2 0.0 5.0 13 100
+ 0.328576 0 5 tcp 1040 ------- 2 0.0 5.0 14 101
r 0.328576 5 1 ack 40 ------- 3 5.1 1.0 6 66
+ 0.328576 1 5 tcp 1040 ------- 3 1.0 5.1 13 102
+ 0.328576 1 5 tcp 1040 ------- 3 1.0 5.1 14 103
r 0.328576 5 2 ack 40 ------- 4 5.2 2.0 6 67
+ 0.328576 2 5 tcp 1040 ------- 4 2.0 5.2 13 104
+ 0.328576 2 5 tcp 1040 ------- 4 2.0 5.2 14 105
r 0.328576 5 3 ack 40 ------- 5 5.3 3.0 6 68
+ 0.328576 3 5 tcp 1040 ------- 5 3.0 5.3 13 106
+ 0.328576 3 5 tcp 1040 ------- 5 3.0 5.3 14 107
r 0.328576 5 4 ack 40 ------- 6 5.4 4.0 6 69
+ 0.328576 4 5 tcp 1040 ------- 6 4.0 5.4 13 108
+ 0.328576 4 5 tcp 1040 ------- 6 4.0 5.4 14 109
- 0.328576 0 5 tcp 1040 ------- 2 0.0 5.0 10 81
- 0.328576 1 5 tcp 1040 ------- 3 1.0 5.1 10 83
- 0.328576 2 5 tcp 1040 ------- 4 2.0 5.2 10 85
- 0.328576 3 5 tcp 1040 ------- 5 3.0 5.3 10 87
- 0.328576 4 5 tcp 1040 ------- 6 4.0 5.4 10 89
- 0.33024 0 5 tcp 1040 ------- 2 0.0 5.0 11 90
- 0.33024 1 5 tcp 1040 ------- 3 1.0 5.1 11 92
- 0.33024 2 5 tcp 1040 ------- 4 2.0 5.2 11 94
- 0.33024 3 5 tcp 1040 ------- 5 3.0 5.3 11 96
- 0.33024 4 5 tcp 1040 ------- 6 4.0 5.4 11 98
- 0.331904 0 5 tcp 1040 ------- 2 0.0 5.0 12 91
- 0.331904 1 5 tcp 1040 ------- 3 1.0 5.1 12 93
- 0.331904 2 5 tcp 1040 ------- 4 2.0 5.2 12 95
- 0.331904 3 5 tcp 1040 ------- 5 3.0 5.3 12 97
- 0.331904 4 5 tcp 1040 ------- 6 4.0 5.4 12 99
- 0.333568 0 5 tcp 1040 ------- 2 0.0 5.0 13 100
- 0.333568 1 5 tcp 1040 ------- 3 1.0 5.1 13 102
- 0.333568 2 5 tcp 1040 ------- 4 2.0 5.2 13 104
- 0.333568 3 5 tcp 1040 ------- 5 3.0 5.3 13 106
- 0.333568 4 5 tcp 1040 ------- 6 4.0 5.4 13 108
- 0.335232 0 5 tcp 1040 ------- 2 0.0 5.0 14 101
- 0.335232 1 5 tcp 1040 ------- 3 1.0 5.1 14 103
- 0.335232 2 5 tcp 1040 ------- 4 2.0 5.2 14 105
- 0.335232 3 5 tcp 1040 ------- 5 3.0 5.3 14 107
- 0.335232 4 5 tcp 1040 ------- 6 4.0 5.4 14 109
r 0.345248 0 5 tcp 1040 ------- 2 0.0 5.0 7 70
+ 0.345248 5 0 ack 40 ------- 2 5.0 0.0 7 110
- 0.345248 5 0 ack 40 ------- 2 5.0 0.0 7 110
r 0.345248 1 5 tcp 1040 ------- 3 1.0 5.1 7 72
+ 0.345248 5 1 ack 40 ------- 3 5.1 1.0 7 111
- 0.345248 5 1 ack 40 ------- 3 5.1 1.0 7 111
r 0.345248 2 5 tcp 1040 ------- 4 2.0 5.2 7 74
+ 0.345248 5 2 ack 40 ------- 4 5.2 2.0 7 112
- 0.345248 5 2 ack 40 ------- 4 5.2 2.0 7 112
r 0.345248 3 5 tcp 1040 ------- 5 3.0 5.3 7 76
+ 0.345248 5 3 ack 40 ------- 5 5.3 3.0 7 113
- 0.345248 5 3 ack 40 ------- 5 5.3 3.0 7 113
r 0.345248 4 5 tcp 1040 ------- 6 4.0 5.4 7 78
+ 0.345248 5 4 ack 40 ------- 6 5.4 4.0 7 114
- 0.345248 5 4 ack 40 ------- 6 5.4 4.0 7 114
r 0.346912 0 5 tcp 1040 ------- 2 0.0 5.0 8 71
+ 0.346912 5 0 ack 40 ------- 2 5.0 0.0 8 115
- 0.346912 5 0 ack 40 ------- 2 5.0 0.0 8 115
r 0.346912 1 5 tcp 1040 ------- 3 1.0 5.1 8 73
+ 0.346912 5 1 ack 40 ------- 3 5.1 1.0 8 116
- 0.346912 5 1 ack 40 ------- 3 5.1 1.0 8 116
r 0.346912 2 5 tcp 1040 ------- 4 2.0 5.2 8 75
+ 0.346912 5 2 ack 40 ------- 4 5.2 2.0 8 117
- 0.346912 5 2 ack 40 ------- 4 5.2 2.0 8 117
r 0.346912 3 5 tcp 1040 ------- 5 3.0 5.3 8 77
+ 0.346912 5 3 ack 40 ------- 5 5.3 3.0 8 118
- 0.346912 5 3 ack 40 ------- 5 5.3 3.0 8 118
r 0.346912 4 5 tcp 1040 ------- 6 4.0 5.4 8 79
+ 0.346912 5 4 ack 40 ------- 6 5.4 4.0 8 119
- 0.346912 5 4 ack 40 ------- 6 5.4 4.0 8 119
r 0.348576 0 5 tcp 1040 ------- 2 0.0 5.0 9 80
+ 0.348576 5 0 ack 40 ------- 2 5.0 0.0 9 120
- 0.348576 5 0 ack 40 ------- 2 5.0 0.0 9 120
r 0.348576 1 5 tcp 1040 ------- 3 1.0 5.1 9 82
+ 0.348576 5 1 ack 40 ------- 3 5.1 1.0 9 121
- 0.348576 5 1 ack 40 ------- 3 5.1 1.0 9 121
r 0.348576 2 5 tcp 1040 ------- 4 2.0 5.2 9 84
+ 0.348576 5 2 ack 40 ------- 4 5.2 2.0 9 122
- 0.348576 5 2 ack 40 ------- 4 5.2 2.0 9 122
r 0.348576 3 5 tcp 1040 ------- 5 3.0 5.3 9 86
+ 0.348576 5 3 ack 40 ------- 5 5.3 3.0 9 123
- 0.348576 5 3 ack 40 ------- 5 5.3 3.0 9 123
r 0.348576 4 5 tcp 1040 ------- 6 4.0 5.4 9 88
+ 0.348576 5 4 ack 40 ------- 6 5.4 4.0 9 124
- 0.348576 5 4 ack 40 ------- 6 5.4 4.0 9 124
r 0.35024 0 5 tcp 1040 ------- 2 0.0 5.0 10 81
+ 0.35024 5 0 ack 40 ------- 2 5.0 0.0 10 125
- 0.35024 5 0 ack 40 ------- 2 5.0 0.0 10 125
r 0.35024 1 5 tcp 1040 ------- 3 1.0 5.1 10 83
+ 0.35024 5 1 ack 40 ------- 3 5.1 1.0 10 126
- 0.35024 5 1 ack 40 ------- 3 5.1 1.0 10 126
r 0.35024 2 5 tcp 1040 ------- 4 2.0 5.2 10 85
+ 0.35024 5 2 ack 40 ------- 4 5.2 2.0 10 127
- 0.35024 5 2 ack 40 ------- 4 5.2 2.0 10 127
r 0.35024 3 5 tcp 1040 ------- 5 3.0 5.3 10 87
+ 0.35024 5 3 ack 40 ------- 5 5.3 3.0 10 128
- 0.35024 5 3 ack 40 ------- 5 5.3 3.0 10 128
r 0.35024 4 5 tcp 1040 ------- 6 4.0 5.4 10 89
+ 0.35024 5 4 ack 40 ------- 6 5.4 4.0 10 129
- 0.35024 5 4 ack 40 ------- 6 5.4 4.0 10 129
r 0.351904 0 5 tcp 1040 ------- 2 0.0 5.0 11 90
+ 0.351904 5 0 ack 40 ------- 2 5.0 0.0 11 130
- 0.351904 5 0 ack 40 ------- 2 5.0 0.0 11 130
r 0.351904 1 5 tcp 1040 ------- 3 1.0 5.1 11 92
+ 0.351904 5 1 ack 40 ------- 3 5.1 1.0 11 131
- 0.351904 5 1 ack 40 ------- 3 5.1 1.0 11 131
r 0.351904 2 5 tcp 1040 ------- 4 2.0 5.2 11 94
+ 0.351904 5 2 ack 40 ------- 4 5.2 2.0 11 132
- 0.351904 5 2 ack 40 ------- 4 5.2 2.0 11 132
r 0.351904 3 5 tcp 1040 ------- 5 3.0 5.3 11 96
+ 0.351904 5 3 ack 40 ------- 5 5.3 3.0 11 133
- 0.351904 5 3 ack 40 ------- 5 5.3 3.0 11 133
r 0.351904 4 5 tcp 1040 ------- 6 4.0 5.4 11 98
+ 0.351904 5 4 ack 40 ------- 6 5.4 4.0 11 134
- 0.351904 5 4 ack 40 ------- 6 5.4 4.0 11 134
r 0.353568 0 5 tcp 1040 ------- 2 0.0 5.0 12 91
+ 0.353568 5 0 ack 40 ------- 2 5.0 0.0 12 135
- 0.353568 5 0 ack 40 ------- 2 5.0 0.0 12 135
r 0.353568 1 5 tcp 1040 ------- 3 1.0 5.1 12 93
+ 0.353568 5 1 ack 40 ------- 3 5.1 1.0 12 136
- 0.353568 5 1 ack 40 ------- 3 5.1 1.0 12 136
r 0.353568 2 5 tcp 1040 ------- 4 2.0 5.2 12 95
+ 0.353568 5 2 ack 40 ------- 4 5.2 2.0 12 137
- 0.353568 5 2 ack 40 ------- 4 5.2 2.0 12 137
r 0.353568 3 5 tcp 1040 ------- 5 3.0 5.3 12 97
+ 0.353568 5 3 ack 40 ------- 5 5.3 3.0 12 138
- 0.353568 5 3 ack 40 ------- 5 5.3 3.0 12 138
r 0.353568 4 5 tcp 1040 ------- 6 4.0 5.4 12 99
+ 0.353568 5 4 ack 40 ------- 6 5.4 4.0 12 139
- 0.353568 5 4 ack 40 ------- 6 5.4 4.0 12 139
r 0.355232 0 5 tcp 1040 ------- 2 0.0 5.0 13 100
+ 0.355232 5 0 ack 40 ------- 2 5.0 0.0 13 140
- 0.355232 5 0 ack 40 ------- 2 5.0 0.0 13 140
r 0.355232 1 5 tcp 1040 ------- 3 1.0 5.1 13 102
+ 0.355232 5 1 ack 40 ------- 3 5.1 1.0 13 141
- 0.355232 5 1 ack 40 ------- 3 5.1 1.0 13 141
r 0.355232 2 5 tcp 1040 ------- 4 2.0 5.2 13 104
+ 0.355232 5 2 ack 40 ------- 4 5.2 2.0 13 142
- 0.355232 5 2 ack 40 ------- 4 5.2 2.0 13 142
r 0.355232 3 5 tcp 1040 ------- 5 3.0 5.3 13 106
+ 0.355232 5 3 ack 40 ------- 5 5.3 3.0 13 143
- 0.355232 5 3 ack 40 ------- 5 5.3 3.0 13 143
r 0.355232 4 5 tcp 1040 ------- 6 4.0 5.4 13 108
+ 0.355232 5 4 ack 40 ------- 6 5.4 4.0 13 144
- 0.355232 5 4 ack 40 ------- 6 5.4 4.0 13 144
r 0.356896 0 5 tcp 1040 ------- 2 0.0 5.0 14 101
+ 0.356896 5 0 ack 40 ------- 2 5.0 0.0 14 145
- 0.356896 5 0 ack 40 ------- 2 5.0 0.0 14 145
r 0.356896 1 5 tcp 1040 ------- 3 1.0 5.1 14 103
+ 0.356896 5 1 ack 40 ------- 3 5.1 1.0 14 146
- 0.356896 5 1 ack 40 ------- 3 5.1 1.0 14 146
r 0.356896 2 5 tcp 1040 ------- 4 2.0 5.2 14 105
+ 0.356896 5 2 ack 40 ------- 4 5.2 2.0 14 147
- 0.356896 5 2 ack 40 ------- 4 5.2 2.0 14 147
r 0.356896 3 5 tcp 1040 ------- 5 3.0 5.3 14 107
+ 0.356896 5 3 ack 40 ------- 5 5.3 3.0 14 148
- 0.356896 5 3 ack 40 ------- 5 5.3 3.0 14 148
r 0.356896 4 5 tcp 1040 ------- 6 4.0 5.4 14 109
+ 0.356896 5 4 ack 40 ------- 6 5.4 4.0 14 149
- 0.356896 5 4 ack 40 ------- 6 5.4 4.0 14 149
r 0.365312 5 0 ack 40 ------- 2 5.0 0.0 7 110
+ 0.365312 0 5 tcp 1040 ------- 2 0.0 5.0 15 150
- 0.365312 0 5 tcp 1040 ------- 2 0.0 5.0 15 150
+ 0.365312 0 5 tcp 1040 ------- 2 0.0 5.0 16 151
r 0.365312 5 1 ack 40 ------- 3 5.1 1.0 7 111
+ 0.365312 1 5 tcp 1040 ------- 3 1.0 5.1 15 152
- 0.365312 1 5 tcp 1040 ------- 3 1.0 5.1 15 152
+ 0.365312 1 5 tcp 1040 ------- 3 1.0 5.1 16 153
r 0.365312 5 2 ack 40 ------- 4 5.2 2.0 7 112
+ 0.365312 2 5 tcp 1040 ------- 4 2.0 5.2 15 154
- 0.365312 2 5 tcp 1040 ------- 4 2.0 5.2 15 154
+ 0.365312 2 5 tcp 1040 ------- 4 2.0 5.2 16 155
r 0.365312 5 3 ack 40 ------- 5 5.3 3.0 7 113
+ 0.365312 3 5 tcp 1040 ------- 5 3.0 5.3 15 156
- 0.365312 3 5 tcp 1040 ------- 5 3.0 5.3 15 156
+ 0.365312 3 5 tcp 1040 ------- 5 3.0 5.3 16 157
r 0.365312 5 4 ack 40 ------- 6 5.4 4.0 7 114
+ 0.365312 4 5 tcp 1040 ------- 6 4.0 5.4 15 158
- 0.365312 4 5 tcp 1040 ------- 6 4.0 5.4 15 158
+ 0.365312 4 5 tcp 1040 ------- 6 4.0 5.4 16 159
r 0.366976 5 0 ack 40 ------- 2 5.0 0.0 8 115
+ 0.366976 0 5 tcp 1040 ------- 2 0.0 5.0 17 160
+ 0.366976 0 5 tcp 1040 ------- 2 0.0 5.0 18 161
r 0.366976 5 1 ack 40 ------- 3 5.1 1.0 8 116
+ 0.366976 1 5 tcp 1040 ------- 3 1.0 5.1 17 162
+ 0.366976 1 5 tcp 1040 ------- 3 1.0 5.1 18 163
r 0.366976 5 2 ack 40 ------- 4 5.2 2.0 8 117
+ 0.366976 2 5 tcp 1040 ------- 4 2.0 5.2 17 164
+ 0.366976 2 5 tcp 1040 ------- 4 2.0 5.2 18 165
r 0.366976 5 3 ack 40 ------- 5 5.3 3.0 8 118
+ 0.366976 3 5 tcp 1040 ------- 5 3.0 5.3 17 166
+ 0.366976 3 5 tcp 1040 ------- 5 3.0 5.3 18 167
r 0.366976 5 4 ack 40 ------- 6 5.4 4.0 8 119
+ 0.366976 4 5 tcp 1040 ------- 6 4.0 5.4 17 168
+ 0.366976 4 5 tcp 1040 ------- 6 4.0 5.4 18 169
- 0.366976 0 5 tcp 1040 ------- 2 0.0 5.0 16 151
- 0.366976 1 5 tcp 1040 ------- 3 1.0 5.1 16 153
- 0.366976 2 5 tcp 1040 ------- 4 2.0 5.2 16 155
- 0.366976 3 5 tcp 1040 ------- 5 3.0 5.3 16 157
- 0.366976 4 5 tcp 1040 ------- 6 4.0 5.4 16 159
r 0.36864 5 0 ack 40 ------- 2 5.0 0.0 9 120
+ 0.36864 0 5 tcp 1040 ------- 2 0.0 5.0 19 170
+ 0.36864 0 5 tcp 1040 ------- 2 0.0 5.0 20 171
r 0.36864 5 1 ack 40 ------- 3 5.1 1.0 9 121
+ 0.36864 1 5 tcp 1040 ------- 3 1.0 5.1 19 172
+ 0.36864 1 5 tcp 1040 ------- 3 1.0 5.1 20 173
r 0.36864 5 2 ack 40 ------- 4 5.2 2.0 9 122
+ 0.36864 2 5 tcp 1040 ------- 4 2.0 5.2 19 174
+ 0.36864 2 5 tcp 1040 ------- 4 2.0 5.2 20 175
r 0.36864 5 3 ack 40 ------- 5 5.3 3.0 9 123
+ 0.36864 3 5 tcp 1040 ------- 5 3.0 5.3 19 176
+ 0.36864 3 5 tcp 1040 ------- 5 3.0 5.3 20 177
r 0.36864 5 4 ack 40 ------- 6 5.4 4.0 9 124
+ 0.36864 4 5 tcp 1040 ------- 6 4.0 5.4 19 178
+ 0.36864 4 5 tcp 1040 ------- 6 4.0 5.4 20 179
- 0.36864 0 5 tcp 1040 ------- 2 0.0 5.0 17 160
- 0.36864 1 5 tcp 1040 ------- 3 1.0 5.1 17 162
- 0.36864 2 5 tcp 1040 ------- 4 2.0 5.2 17 164
- 0.36864 3 5 tcp 1040 ------- 5 3.0 5.3 17 166
- 0.36864 4 5 tcp 1040 ------- 6 4.0 5.4 17 168
r 0.370304 5 0 ack 40 ------- 2 5.0 0.0 10 125
+ 0.370304 0 5 tcp 1040 ------- 2 0.0 5.0 21 180
+ 0.370304 0 5 tcp 1040 ------- 2 0.0 5.0 22 181
r 0.370304 5 1 ack 40 ------- 3 5.1 1.0 10 126
+ 0.370304 1 5 tcp 1040 ------- 3 1.0 5.1 21 182
+ 0.370304 1 5 tcp 1040 ------- 3 1.0 5.1 22 183
r 0.370304 5 2 ack 40 ------- 4 5.2 2.0 10 127
+ 0.370304 2 5 tcp 1040 ------- 4 2.0 5.2 21 184
+ 0.370304 2 5 tcp 1040 ------- 4 2.0 5.2 22 185
r 0.370304 5 3 ack 40 ------- 5 5.3 3.0 10 128
+ 0.370304 3 5 tcp 1040 ------- 5 3.0 5.3 21 186
+ 0.370304 3 5 tcp 1040 ------- 5 3.0 5.3 22 187
r 0.370304 5 4 ack 40 ------- 6 5.4 4.0 10 129
+ 0.370304 4 5 tcp 1040 ------- 6 4.0 5.4 21 188
+ 0.370304 4 5 tcp 1040 ------- 6 4.0 5.4 22 189
- 0.370304 0 5 tcp 1040 ------- 2 0.0 5.0 18 161
- 0.370304 1 5 tcp 1040 ------- 3 1.0 5.1 18 163
- 0.370304 2 5 tcp 1040 ------- 4 2.0 5.2 18 165
- 0.370304 3 5 tcp 1040 ------- 5 3.0 5.3 18 167
- 0.370304 4 5 tcp 1040 ------- 6 4.0 5.4 18 169
r 0.371968 5 0 ack 40 ------- 2 5.0 0.0 11 130
+ 0.371968 0 5 tcp 1040 ------- 2 0.0 5.0 23 190
+ 0.371968 0 5 tcp 1040 ------- 2 0.0 5.0 24 191
r 0.371968 5 1 ack 40 ------- 3 5.1 1.0 11 131
+ 0.371968 1 5 tcp 1040 ------- 3 1.0 5.1 23 192
+ 0.371968 1 5 tcp 1040 ------- 3 1.0 5.1 24 193
r 0.371968 5 2 ack 40 ------- 4 5.2 2.0 11 132
+ 0.371968 2 5 tcp 1040 ------- 4 2.0 5.2 23 194
+ 0.371968 2 5 tcp 1040 ------- 4 2.0 5.2 24 195
r 0.371968 5 3 ack 40 ------- 5 5.3 3.0 11 133
+ 0.371968 3 5 tcp 1040 ------- 5 3.0 5.3 23 196
+ 0.371968 3 5 tcp 1040 ------- 5 3.0 5.3 24 197
r 0.371968 5 4 ack 40 ------- 6 5.4 4.0 11 134
+ 0.371968 4 5 tcp 1040 ------- 6 4.0 5.4 23 198
+ 0.371968 4 5 tcp 1040 ------- 6 4.0 5.4 24 199
- 0.371968 0 5 tcp 1040 ------- 2 0.0 5.0 19 170
- 0.371968 1 5 tcp 1040 ------- 3 1.0 5.1 19 172
- 0.371968 2 5 tcp 1040 ------- 4 2.0 5.2 19 174
- 0.371968 3 5 tcp 1040 ------- 5 3.0 5.3 19 176
- 0.371968 4 5 tcp 1040 ------- 6 4.0 5.4 19 178
r 0.373632 5 0 ack 40 ------- 2 5.0 0.0 12 135
+ 0.373632 0 5 tcp 1040 ------- 2 0.0 5.0 25 200
+ 0.373632 0 5 tcp 1040 ------- 2 0.0 5.0 26 201
r 0.373632 5 1 ack 40 ------- 3 5.1 1.0 12 136
+ 0.373632 1 5 tcp 1040 ------- 3 1.0 5.1 25 202
+ 0.373632 1 5 tcp 1040 ------- 3 1.0 5.1 26 203
r 0.373632 5 2 ack 40 ------- 4 5.2 2.0 12 137
+ 0.373632 2 5 tcp 1040 ------- 4 2.0 5.2 25 204
+ 0.373632 2 5 tcp 1040 ------- 4 2.0 5.2 26 205
r 0.373632 5 3 ack 40 ------- 5 5.3 3.0 12 138
+ 0.373632 3 5 tcp 1040 ------- 5 3.0 5.3 25 206
+ 0.373632 3 5 tcp 1040 ------- 5 3.0 5.3 26 207
r 0.373632 5 4 ack 40 ------- 6 5.4 4.0 12 139
+ 0.373632 4 5 tcp 1040 ------- 6 4.0 5.4 25 208
+ 0.373632 4 5 tcp 1040 ------- 6 4.0 5.4 26 209
- 0.373632 0 5 tcp 1040 ------- 2 0.0 5.0 20 171
- 0.373632 1 5 tcp 1040 ------- 3 1.0 5.1 20 173
- 0.373632 2 5 tcp 1040 ------- 4 2.0 5.2 20 175
- 0.373632 3 5 tcp 1040 ------- 5 3.0 5.3 20 177
- 0.373632 4 5 tcp 1040 ------- 6 4.0 5.4 20 179
r 0.375296 5 0 ack 40 ------- 2 5.0 0.0 13 140
+ 0.375296 0 5 tcp 1040 ------- 2 0.0 5.0 27 210
+ 0.375296 0 5 tcp 1040 ------- 2 0.0 5.0 28 211
r 0.375296 5 1 ack 40 ------- 3 5.1 1.0 13 141
+ 0.375296 1 5 tcp 1040 ------- 3 1.0 5.1 27 212
+ 0.375296 1 5 tcp 1040 ------- 3 1.0 5.1 28 213
r 0.375296 5 2 ack 40 ------- 4 5.2 2.0 13 142
+ 0.375296 2 5 tcp 1040 ------- 4 2.0 5.2 27 214
+ 0.375296 2 5 tcp 1040 ------- 4 2.0 5.2 28 215
r 0.375296 5 3 ack 40 ------- 5 5.3 3.0 13 143
+ 0.375296 3 5 tcp 1040 ------- 5 3.0 5.3 27 216
+ 0.375296 3 5 tcp 1040 ------- 5 3.0 5.3 28 217
r 0.375296 5 4 ack 40 ------- 6 5.4 4.0 13 144
+ 0.375296 4 5 tcp 1040 ------- 6 4.0 5.4 27 218
+ 0.375296 4 5 tcp 1040 ------- 6 4.0 5.4 28 219
- 0.375296 0 5 tcp 1040 ------- 2 0.0 5.0 21 180
- 0.375296 1 5 tcp 1040 ------- 3 1.0 5.1 21 182
- 0.375296 2 5 tcp 1040 ------- 4 2.0 5.2 21 184
- 0.375296 3 5 tcp 1040 ------- 5 3.0 5.3 21 186
- 0.375296 4 5 tcp 1040 ------- 6 4.0 5.4 21 188
r 0.37696 5 0 ack 40 ------- 2 5.0 0.0 14 145
+ 0.37696 0 5 tcp 1040 ------- 2 0.0 5.0 29 220
+ 0.37696 0 5 tcp 1040 ------- 2 0.0 5.0 30 221
r 0.37696 5 1 ack 40 ------- 3 5.1 1.0 14 146
+ 0.37696 1 5 tcp 1040 ------- 3 1.0 5.1 29 222
+ 0.37696 1 5 tcp 1040 ------- 3 1.0 5.1 30 223
r 0.37696 5 2 ack 40 ------- 4 5.2 2.0 14 147
+ 0.37696 2 5 tcp 1040 ------- 4 2.0 5.2 29 224
+ 0.37696 2 5 tcp 1040 ------- 4 2.0 5.2 30 225
r 0.37696 5 3 ack 40 ------- 5 5.3 3.0 14 148
+ 0.37696 3 5 tcp 1040 ------- 5 3.0 5.3 29 226
+ 0.37696 3 5 tcp 1040 ------- 5 3.0 5.3 30 227
r 0.37696 5 4 ack 40 ------- 6 5.4 4.0 14 149
+ 0.37696 4 5 tcp 1040 ------- 6 4.0 5.4 29 228
+ 0.37696 4 5 tcp 1040 ------- 6 4.0 5.4 30 229
- 0.37696 0 5 tcp 1040 ------- 2 0.0 5.0 22 181
- 0.37696 1 5 tcp 1040 ------- 3 1.0 5.1 22 183
- 0.37696 2 5 tcp 1040 ------- 4 2.0 5.2 22 185
- 0.37696 3 5 tcp 1040 ------- 5 3.0 5.3 22 187
- 0.37696 4 5 tcp 1040 ------- 6 4.0 5.4 22 189
- 0.378624 0 5 tcp 1040 ------- 2 0.0 5.0 23 190
- 0.378624 1 5 tcp 1040 ------- 3 1.0 5.1 23 192
- 0.378624 2 5 tcp 1040 ------- 4 2.0 5.2 23 194
- 0.378624 3 5 tcp 1040 ------- 5 3.0 5.3 23 196
- 0.378624 4 5 tcp 1040 ------- 6 4.0 5.4 23 198
- 0.380288 0 5 tcp 1040 ------- 2 0.0 5.0 24 191
- 0.380288 1 5 tcp 1040 ------- 3 1.0 5.1 24 193
- 0.380288 2 5 tcp 1040 ------- 4 2.0 5.2 24 195
- 0.380288 3 5 tcp 1040 ------- 5 3.0 5.3 24 197
- 0.380288 4 5 tcp 1040 ------- 6 4.0 5.4 24 199
- 0.381952 0 5 tcp 1040 ------- 2 0.0 5.0 25 200
- 0.381952 1 5 tcp 1040 ------- 3 1.0 5.1 25 202
- 0.381952 2 5 tcp 1040 ------- 4 2.0 5.2 25 204
- 0.381952 3 5 tcp 1040 ------- 5 3.0 5.3 25 206
- 0.381952 4 5 tcp 1040 ------- 6 4.0 5.4 25 208
- 0.383616 0 5 tcp 1040 ------- 2 0.0 5.0 26 201
- 0.383616 1 5 tcp 1040 ------- 3 1.0 5.1 26 203
- 0.383616 2 5 tcp 1040 ------- 4 2.0 5.2 26 205
- 0.383616 3 5 tcp 1040 ------- 5 3.0 5.3 26 207
- 0.383616 4 5 tcp 1040 ------- 6 4.0 5.4 26 209
- 0.38528 0 5 tcp 1040 ------- 2 0.0 5.0 27 210
- 0.38528 1 5 tcp 1040 ------- 3 1.0 5.1 27 212
- 0.38528 2 5 tcp 1040 ------- 4 2.0 5.2 27 214
- 0.38528 3 5 tcp 1040 ------- 5 3.0 5.3 27 216
- 0.38528 4 5 tcp 1040 ------- 6 4.0 5.4 27 218
- 0.386944 0 5 tcp 1040 ------- 2 0.0 5.0 28 211
- 0.386944 1 5 tcp 1040 ------- 3 1.0 5.1 28 213
- 0.386944 2 5 tcp 1040 ------- 4 2.0 5.2 28 215
- 0.386944 3 5 tcp 1040 ------- 5 3.0 5.3 28 217
- 0.386944 4 5 tcp 1040 ------- 6 4.0 5.4 28 219
r 0.386976 0 5 tcp 1040 ------- 2 0.0 5.0 15 150
+ 0.386976 5 0 ack 40 ------- 2 5.0 0.0 15 230
- 0.386976 5 0 ack 40 ------- 2 5.0 0.0 15 230
r 0.386976 1 5 tcp 1040 ------- 3 1.0 5.1 15 152
+ 0.386976 5 1 ack 40 ------- 3 5.1 1.0 15 231
- 0.386976 5 1 ack 40 ------- 3 5.1 1.0 15 231
r 0.386976 2 5 tcp 1040 ------- 4 2.0 5.2 15 154
+ 0.386976 5 2 ack 40 ------- 4 5.2 2.0 15 232
- 0.386976 5 2 ack 40 ------- 4 5.2 2.0 15 232
r 0.386976 3 5 tcp 1040 ------- 5 3.0 5.3 15 156
+ 0.386976 5 3 ack 40 ------- 5 5.3 3.0 15 233
- 0.386976 5 3 ack 40 ------- 5 5.3 3.0 15 233
r 0.386976 4 5 tcp 1040 ------- 6 4.0 5.4 15 158
+ 0.386976 5 4 ack 40 ------- 6 5.4 4.0 15 234
- 0.386976 5 4 ack 40 ------- 6 5.4 4.0 15 234
- 0.388608 0 5 tcp 1040 ------- 2 0.0 5.0 29 220
- 0.388608 1 5 tcp 1040 ------- 3 1.0 5.1 29 222
- 0.388608 2 5 tcp 1040 ------- 4 2.0 5.2 29 224
- 0.388608 3 5 tcp 1040 ------- 5 3.0 5.3 29 226
- 0.388608 4 5 tcp 1040 ------- 6 4.0 5.4 29 228
r 0.38864 0 5 tcp 1040 ------- 2 0.0 5.0 16 151
+ 0.38864 5 0 ack 40 ------- 2 5.0 0.0 16 235
- 0.38864 5 0 ack 40 ------- 2 5.0 0.0 16 235
r 0.38864 1 5 tcp 1040 ------- 3 1.0 5.1 16 153
+ 0.38864 5 1 ack 40 ------- 3 5.1 1.0 16 236
- 0.38864 5 1 ack 40 ------- 3 5.1 1.0 16 236
r 0.38864 2 5 tcp 1040 ------- 4 2.0 5.2 16 155
+ 0.38864 5 2 ack 40 ------- 4 5.2 2.0 16 237
- 0.38864 5 2 ack 40 ------- 4 5.2 2.0 16 237
r 0.38864 3 5 tcp 1040 ------- 5 3.0 5.3 16 157
+ 0.38864 5 3 ack 40 ------- 5 5.3 3.0 16 238
- 0.38864 5 3 ack 40 ------- 5 5.3 3.0 16 238
r 0.38864 4 5 tcp 1040 ------- 6 4.0 5.4 16 159
+ 0.38864 5 4 ack 40 ------- 6 5.4 4.0 16 239
- 0.38864 5 4 ack 40 ------- 6 5.4 4.0 16 239
- 0.390272 0 5 tcp 1040 ------- 2 0.0 5.0 30 221
- 0.390272 1 5 tcp 1040 ------- 3 1.0 5.1 30 223
- 0.390272 2 5 tcp 1040 ------- 4 2.0 5.2 30 225
- 0.390272 3 5 tcp 1040 ------- 5 3.0 5.3 30 227